# vtk DataFile Version 3.0
Generated by GMDS VTK Writer

ASCII
DATASET UNSTRUCTURED_GRID
POINTS 228 float
-18.0000010001 -7.0000010001 -1.0000010001
-6.9999989999 -7.0000010001 -1.0000010001
-18 -7 12
-6.9999989999 -7.0000010001 12.0000010001
-18.0000010001 -7.0000010001 0.949999299929999
-18 -5 12
-6.9999989999 -4.98416371610026 12.0000010001
-18.0000010001 -4.98416371610026 0.949999299929999
-7 -5 -1
-18.0000010001 -4.98416371610026 -1.0000010001
-11.94999989999 -0.0921355237209641 1
-11.94999989999 -0.0921355237209617 -1
-16.857864376269 -5 0.999999999999999
-16.857864376269 -5 -1
-16.90000080008 -7.0000010001 -1.0000010001
-16.90000080008 -7.0000010001 0.949999299929999
-16.90000080008 -7.0000010001 12.0000010001
-16.90000080008 -4.98416371610026 12.0000010001
-16.90000080008 -7.0000010001 10.830000820082
-16.90000080008 -4.98416371610026 10.830000820082
-18.0000010001 -4.98416371610026 10.830000820082
-18.0000010001 -7.0000010001 10.830000820082
-8.85624933743375 1.77860799074047 -1.0000008750875
-8.85624933743375 1.77860799074047 0.956249387438749
-9.474999449945 -4.98416371610026 0.949999299929999
-9.474999449945 -4.98416371610026 -1.0000010001
-11.3312497874787 -0.696392459304536 0.981249737473749
-11.3312497874787 -0.696392459304536 -1.0000003750375
-14.425000350035 -4.98416371610026 0.949999299929999
-14.425000350035 -4.98416371610026 -1.0000010001
-9.474999449945 -7.0000010001 -1.0000010001
-9.474999449945 -7.0000010001 0.949999299929999
-14.425000350035 -7.0000010001 -1.0000010001
-14.425000350035 -7.0000010001 0.949999299929999
-9.474999449945 -4.98416371610026 10.830000820082
-9.474999449945 -7.0000010001 10.830000820082
-14.425000350035 -7.0000010001 10.830000820082
-14.425000350035 -4.98416371610026 10.830000820082
-9.474999449945 -7.0000010001 12.0000010001
-9.474999449945 -4.98416371610026 12.0000010001
-14.425000350035 -7.0000010001 12.0000010001
-14.425000350035 -4.98416371610026 12.0000010001
-5.04999969997 -7.0000020002 12.0000010001
-5.04999969997 -4.98416471620026 12.0000010001
-5.04999969997 -7.0000020002 10.90000080008
-5 -5 10.8578643762691
-7 -7.0000020002 10.90000080008
-7 -5 10.8578643762691
6.0000020002 -7.0000020002 10.90000080008
6 -7 12
6.0000020002 -4.98416471620026 10.90000080008
6 -5 12
4.830001820182 -7.0000020002 10.90000080008
4.830001820182 -7.0000020002 12.0000010001
4.830001820182 -4.98416471620026 10.90000080008
4.830001820182 -4.98416471620026 12.0000010001
-7 4.85786437626905 1
-6.9999998749875 1.77860699064047 2.85624933743375
-5.04374961246125 1.77860699064047 2.85624933743375
-6.9999989999 -0.0921365238209619 5.94999989998999
-6.9999993749375 -0.696393459404536 5.33124978747875
-4.9999989999 -0.092136523820963 5.94999989998999
-5.01874926242625 -0.696393459404536 5.33124978747875
-5.04999969997 -4.98416471620026 8.425000350035
-7 -4.98416471620026 8.425000350035
-7 -5 1
-7 -4.98416471620026 3.474999449945
-5 -5 1
-5.04999969997 -4.98416471620026 3.474999449945
-5.04999969997 -7.0000020002 8.425000350035
-7 -7.0000020002 8.425000350035
-7 -7.0000020002 0.999998999899999
-7 -7.0000020002 3.474999449945
-5.04999969997 -7.0000020002 0.999998999899999
-5.04999969997 -7.0000020002 3.474999449945
4.83000182018201 -7.0000020002 0.9999989999
4.83000182018201 -7.0000020002 3.474999449945
4.85786437626905 -5 1
4.83000182018201 -4.98416471620026 3.474999449945
4.830001820182 -4.98416471620026 8.425000350035
4.830001820182 -7.0000020002 8.425000350035
6.00000200020001 -7.0000020002 0.9999989999
6.00000200020001 -7.0000020002 3.474999449945
6.00000200020001 -4.98416471620026 0.9999989999
6.00000200020001 -4.98416471620026 3.474999449945
6.0000020002 -4.98416471620026 8.425000350035
6.0000020002 -7.0000020002 8.425000350035
-16.90000080008 -4.98416371610026 8.49472773350062
-16.90000080008 -7.0000010001 8.49472773350062
-18.0000010001 -7.0000010001 8.49472773350062
-18.0000010001 -4.98416371610026 8.49472773350062
-14.425000350035 -4.98416371610026 8.49472773350062
-14.425000350035 -7.0000010001 8.49472773350062
-9.474999449945 -7.0000010001 8.49472773350062
-9.474999449945 -4.98416371610026 8.49472773350062
-16.90000080008 -4.98416371610026 3.46490877778687
-16.90000080008 -7.0000010001 3.46490877778687
-18.0000010001 -7.0000010001 3.46490877778687
-18.0000010001 -4.98416371610026 3.46490877778687
-14.425000350035 -4.98416371610026 3.46490877778687
-14.425000350035 -7.0000010001 3.46490877778687
-9.474999449945 -7.0000010001 3.46490877778687
-9.474999449945 -4.98416371610026 3.46490877778687
2.49472873360062 -4.98416471620026 10.90000080008
2.49472873360062 -7.0000020002 10.90000080008
2.49472873360062 -7.0000020002 12.0000010001
2.49472873360062 -4.98416471620026 12.0000010001
2.49472873360062 -7.0000020002 8.425000350035
2.49472873360062 -4.98416471620026 8.425000350035
2.49472873360062 -4.98416471620026 3.474999449945
2.49472873360062 -7.0000020002 3.474999449945
2.49472873360062 -7.0000020002 0.999998999899999
2.49472873360062 -4.98416471620026 0.999998999899999
-2.53509022211313 -4.98416471620026 10.90000080008
-2.53509022211313 -7.0000020002 10.90000080008
-2.53509022211313 -7.0000020002 12.0000010001
-2.53509022211313 -4.98416471620026 12.0000010001
-2.53509022211313 -7.0000020002 8.425000350035
-2.53509022211313 -4.98416471620026 8.425000350035
-2.53509022211313 -4.98416471620026 3.474999449945
-2.53509022211313 -7.0000020002 3.474999449945
-2.53509022211313 -7.0000020002 0.999998999899999
-2.53509022211313 -4.98416471620026 0.999998999899999
-2.525000550055 -4.98416371610027 -10.830000820082
-2.525000550055 -7.00000100010001 -10.830000820082
2.425000350035 -4.98416371610027 -10.830000820082
2.425000350035 -7.00000100010001 -10.830000820082
-2.525000550055 -4.98416371610027 -8.49472773350062
-2.525000550055 -7.00000100010001 -8.49472773350062
2.425000350035 -4.98416371610027 -8.49472773350062
2.425000350035 -7.00000100010001 -8.49472773350062
6.0000010001 -7.00000100010001 -0.949999299929997
6.0000010001 -4.98416371610027 -0.949999299929997
4.90000080008 -7.00000100010001 -0.949999299929997
4.85786437626905 -5 -1
4.90000080008001 -7.00000100010001 -12.0000010001
6 -7 -12
4.90000080008001 -4.98416371610027 -12.0000010001
6 -5 -12
4.90000080008001 -7.00000100010001 -10.830000820082
6.00000100010001 -7.00000100010001 -10.830000820082
4.90000080008001 -4.98416371610027 -10.830000820082
6.00000100010001 -4.98416371610027 -10.830000820082
-5 4.85786437626905 1
-3.14375066256625 1.77860799074047 1.0000008750875
-5 4.85786437626905 -1
-3.14375066256625 1.77860799074047 -0.956249387438748
-0.050000100010012 -0.0921355237209641 1
-0.668750212521256 -0.696392459304538 1.0000003750375
-0.0500001000100098 -0.0921355237209653 -0.999999999999999
-0.668750212521256 -0.696392459304538 -0.981249737473749
2.425000350035 -4.98416371610027 -0.949999299929998
-5 -5 -1
-2.525000550055 -4.98416371610027 -0.949999299929998
2.425000350035 -7.00000100010001 -0.949999299929998
-5 -7.00000200020001 -0.999998999899999
-2.525000550055 -7.00000100010001 -0.949999299929998
-5.0000010001 -7.00000100010001 -12.0000010001
-2.525000550055 -7.00000100010001 -12.0000010001
-5.0000010001 -4.98416371610027 -12.0000010001
-2.525000550055 -4.98416371610027 -12.0000010001
-4.99999999999999 -7.00000200020001 -10.90000080008
-5 -5 -10.8578643762691
2.425000350035 -4.98416371610027 -12.0000010001
2.425000350035 -7.00000100010001 -12.0000010001
-9.46490977788687 -4.98416471620027 -12.0000010001
-9.46490977788687 -4.98416471620027 -10.90000080008
-9.46490977788687 -7.00000200020001 -12.0000010001
-9.46490977788687 -7.00000200020001 -10.90000080008
-6.95000030002999 -4.98416471620027 -12.0000010001
-7 -5 -10.8578643762691
-6.95000030002999 -7.00000200020001 -12.0000010001
-6.95000030002999 -7.00000200020001 -10.90000080008
-14.4947287336006 -7.00000200020001 -8.42500035003501
-14.4947287336006 -7.00000200020001 -10.90000080008
-14.4947287336006 -4.98416471620027 -8.42500035003501
-14.4947287336006 -4.98416471620027 -10.90000080008
-9.46490977788687 -7.00000200020001 -8.425000350035
-9.46490977788687 -4.98416471620027 -8.42500035003501
-16.830001820182 -7.00000200020001 -10.90000080008
-16.830001820182 -4.98416471620027 -10.90000080008
-16.830001820182 -7.00000200020001 -8.42500035003501
-16.830001820182 -4.98416471620027 -8.42500035003501
-9.46490977788687 -4.98416471620027 -3.474999449945
-9.46490977788687 -7.00000200020001 -3.474999449945
-6.95000030003 -4.98416471620027 -3.474999449945
-6.95000030003 -7.00000200020001 -3.474999449945
4.90000080008 -7.00000100010001 -8.49472773350062
4.90000080008 -4.98416371610027 -8.49472773350062
-6.95000030002999 -7.00000200020001 -8.425000350035
-6.95000030002999 -4.98416471620027 -8.425000350035
-4.99999999999999 -7.00000200020001 -8.425000350035
-4.99999999999999 -4.98416471620027 -8.425000350035
-5 -7.00000200020001 -3.474999449945
-5 -4.98416471620027 -3.474999449945
-18.0000020002 -7.00000200020001 -10.90000080008
-18 -7 -12
-18.0000020002 -4.98416471620027 -10.90000080008
-18 -5 -12
-16.830001820182 -7.00000200020001 -12.0000010001
-16.830001820182 -4.98416471620027 -12.0000010001
-7.0000010001 -0.0921365238209653 -5.94999989998999
-6.98125073757375 -0.696393459404538 -5.33124978747875
-5.0000010001 -0.0921365238209641 -5.94999989998999
-5.0000006250625 -0.696393459404538 -5.33124978747875
-5.0000001250125 1.77860699064047 -2.85624933743375
-7 4.85786437626905 -1
-6.95625038753875 1.77860699064047 -2.85624933743375
-18.0000020002 -4.98416471620027 -8.42500035003501
-18.0000020002 -7.00000200020001 -8.42500035003501
-18.0000020002 -7.00000200020001 -3.474999449945
-18.0000020002 -4.98416471620027 -3.474999449945
-16.830001820182 -7.00000200020001 -3.474999449945
-16.830001820182 -4.98416471620027 -3.474999449945
-14.4947287336006 -4.98416471620027 -3.474999449945
-14.4947287336006 -7.00000200020001 -3.474999449945
6.0000010001 -4.98416371610027 -8.49472773350062
6.0000010001 -7.00000100010001 -8.49472773350062
-14.4947287336006 -4.98416471620027 -12.0000010001
-14.4947287336006 -7.00000200020001 -12.0000010001
6.0000010001 -4.98416371610027 -3.46490877778687
4.90000080008001 -4.98416371610027 -3.46490877778687
6.0000010001 -7.00000100010001 -3.46490877778687
4.90000080008 -7.00000100010001 -3.46490877778687
2.425000350035 -4.98416371610027 -3.46490877778687
-2.525000550055 -4.98416371610027 -3.46490877778687
2.425000350035 -7.00000100010001 -3.46490877778687
-2.525000550055 -7.00000100010001 -3.46490877778687

CELLS 98 882
8 15 12 13 14 4 7 9 0 
8 16 2 5 17 18 21 20 19 
8 206 22 23 56 11 27 26 10 
8 13 29 27 11 12 28 26 10 
8 8 25 24 65 206 22 23 56 
8 24 23 22 25 28 26 27 29 
8 14 32 29 13 15 33 28 12 
8 1 30 31 71 8 25 24 65 
8 31 24 25 30 33 28 29 32 
8 3 38 39 6 46 35 34 47 
8 17 41 40 16 19 37 36 18 
8 38 40 41 39 35 36 37 34 
8 44 45 47 46 42 43 6 3 
8 48 49 51 50 52 53 55 54 
8 56 57 58 143 59 60 62 61 
8 47 64 60 59 45 63 62 61 
8 65 66 68 67 56 57 58 143 
8 68 58 57 66 63 62 60 64 
8 46 70 64 47 44 69 63 45 
8 71 72 74 73 65 66 68 67 
8 74 68 66 72 69 63 64 70 
8 81 82 84 83 75 76 78 77 
8 50 85 86 48 54 79 80 52 
8 82 86 85 84 76 80 79 78 
8 19 18 21 20 87 88 89 90 
8 18 19 37 36 88 87 91 92 
8 34 35 36 37 94 93 92 91 
8 47 46 35 34 64 70 93 94 
8 90 87 88 89 98 95 96 97 
8 98 95 96 97 7 12 15 4 
8 92 88 87 91 100 96 95 99 
8 100 96 95 99 33 15 12 28 
8 91 94 93 92 99 102 101 100 
8 99 102 101 100 28 24 31 33 
8 94 64 70 93 102 66 72 101 
8 102 66 72 101 24 65 71 31 
8 54 52 53 55 103 104 105 106 
8 52 54 79 80 104 103 108 107 
8 78 76 80 79 109 110 107 108 
8 77 75 76 78 112 111 110 109 
8 106 103 104 105 116 113 114 115 
8 116 113 114 115 43 45 44 42 
8 107 104 103 108 117 114 113 118 
8 117 114 113 118 69 44 45 63 
8 108 109 110 107 118 119 120 117 
8 118 119 120 117 63 68 74 69 
8 109 112 111 110 119 122 121 120 
8 119 122 121 120 68 67 73 74 
8 123 124 126 125 127 128 130 129 
8 133 134 77 75 131 132 83 81 
8 135 136 138 137 139 140 142 141 
8 143 144 146 145 147 148 150 149 
8 77 112 148 147 134 151 150 149 
8 67 122 153 152 143 144 146 145 
8 153 146 144 122 151 150 148 112 
8 75 111 112 77 133 154 151 134 
8 73 121 156 155 67 122 153 152 
8 156 153 122 121 154 151 112 111 
8 157 158 160 159 161 124 123 162 
8 137 163 164 135 141 125 126 139 
8 158 164 163 160 124 126 125 123 
8 165 166 168 167 169 170 172 171 
8 173 174 176 175 177 168 166 178 
8 179 180 182 181 174 176 175 173 
8 183 25 30 184 185 8 1 186 
8 139 141 125 126 187 188 129 130 
8 172 170 162 161 171 169 159 157 
8 186 185 194 193 189 190 192 191 
8 195 196 198 197 179 199 200 180 
8 162 192 204 203 170 190 202 201 
8 145 205 207 206 203 204 202 201 
8 152 194 185 8 145 205 207 206 
8 161 191 192 162 172 189 190 170 
8 185 207 205 194 190 202 204 192 
8 197 208 209 195 180 182 181 179 
8 0 210 211 9 14 212 213 13 
8 155 193 186 1 152 194 185 8 
8 210 209 208 211 212 181 182 213 
8 214 29 32 215 183 25 30 184 
8 213 212 181 182 214 215 173 175 
8 177 168 166 178 189 172 170 190 
8 178 183 184 177 190 185 186 189 
8 175 214 215 173 178 183 184 177 
8 162 161 124 123 192 191 128 127 
8 141 139 140 142 188 187 217 216 
8 218 176 174 219 165 166 168 167 
8 216 188 187 217 220 221 223 222 
8 224 225 227 226 151 153 156 154 
8 127 192 191 128 225 194 193 227 
8 225 194 193 227 153 152 155 156 
8 226 223 221 224 154 133 134 151 
8 129 127 128 130 224 225 227 226 
8 220 221 223 222 132 134 133 131 
8 130 187 188 129 226 223 221 224 
8 13 14 212 213 29 32 215 214 
8 180 179 199 200 176 174 219 218 
8 65 8 152 67 71 1 155 73 
8 56 206 145 143 65 8 152 67 

CELL_TYPES 98
12 
12 
12 
12 
12 
12 
12 
12 
12 
12 
12 
12 
12 
12 
12 
12 
12 
12 
12 
12 
12 
12 
12 
12 
12 
12 
12 
12 
12 
12 
12 
12 
12 
12 
12 
12 
12 
12 
12 
12 
12 
12 
12 
12 
12 
12 
12 
12 
12 
12 
12 
12 
12 
12 
12 
12 
12 
12 
12 
12 
12 
12 
12 
12 
12 
12 
12 
12 
12 
12 
12 
12 
12 
12 
12 
12 
12 
12 
12 
12 
12 
12 
12 
12 
12 
12 
12 
12 
12 
12 
12 
12 
12 
12 
12 
12 
12 
12 
POINT_DATA 228
SCALARS GMDS_ID int 1
LOOKUP_TABLE default
0 1 2 3 4 5 6 7 8 9 10 11 12 13 14 15 16 17 18 19 20 21 22 23 24 25 26 27 28 29 30 31 32 33 34 35 36 37 38 39 40 41 42 43 44 45 46 47 48 49 50 51 52 53 54 55 56 57 58 59 60 61 62 63 64 65 66 67 68 69 70 71 72 73 74 75 76 77 78 79 80 81 82 83 84 85 86 87 88 89 90 91 92 93 94 95 96 97 98 99 100 101 102 103 104 105 106 107 108 109 110 111 112 113 114 115 116 117 118 119 120 121 122 123 124 125 126 127 128 129 130 131 132 133 134 135 136 137 138 139 140 141 142 143 144 145 146 147 148 149 150 151 152 153 154 155 156 157 158 159 160 161 162 163 164 165 166 167 168 169 170 171 172 173 174 175 176 177 178 179 180 181 182 183 184 185 186 187 188 189 190 191 192 193 194 195 196 197 198 199 200 201 202 203 204 205 206 207 208 209 210 211 212 213 214 215 216 217 218 219 220 221 222 223 224 225 226 227 


CELL_DATA 98
SCALARS GMDS_ID int 1
LOOKUP_TABLE default
0 1 2 3 4 5 6 7 8 9 10 11 12 13 14 15 16 17 18 19 20 21 22 23 24 25 26 27 28 29 30 31 32 33 34 35 36 37 38 39 40 41 42 43 44 45 46 47 48 49 50 51 52 53 54 55 56 57 58 59 60 61 62 63 64 65 66 67 68 69 70 71 72 73 74 75 76 77 78 79 80 81 82 83 84 85 86 87 88 89 90 91 92 93 94 95 96 97 

