# vtk DataFile Version 3.0
Generated by GMDS VTK Writer

ASCII
DATASET UNSTRUCTURED_GRID
POINTS 29 float
5 -5 5
5 5 5
-5 5 5
-5 -5 5
5 5 -5
5 -5 -5
-5 -5 -5
-5 5 -5
5 8.8817841970013e-16 5
-8.8817841970013e-16 5 5
-5 -8.8817841970013e-16 5
8.8817841970013e-16 -5 5
5 -8.8817841970013e-16 -5
-8.8817841970013e-16 -5 -5
-5 8.8817841970013e-16 -5
8.8817841970013e-16 5 -5
-5 -5 -8.8817841970013e-16
5 -5 -8.8817841970013e-16
-5 5 -8.8817841970013e-16
5 5 -8.8817841970013e-16
-0.92696297506771 0.92696297506771 5
0.92696297506771 -0.92696297506771 -5
0.92696297506771 -5 -0.92696297506771
-5 -0.92696297506771 -0.92696297506771
-0.92696297506771 5 -0.92696297506771
5 0.92696297506771 -0.92696297506771
-2.3217736613093 -2.382075594052 -2.4619357831368
-0.80181739054286 -0.1084498797747 -0.15920268712361
2.0533842489209 1.1826293073563 2.104704877289

CELLS 61 305
4 6 23 16 26 
4 16 23 27 26 
4 21 22 27 26 
4 1 19 8 28 
4 1 9 19 28 
4 20 27 24 28 
4 20 11 10 16 
4 20 11 27 28 
4 22 16 27 26 
4 22 25 27 28 
4 22 17 25 28 
4 11 22 27 28 
4 20 23 18 27 
4 14 24 18 27 
4 12 22 5 17 
4 21 15 14 27 
4 21 27 14 26 
4 21 25 15 27 
4 14 23 6 26 
4 14 27 23 26 
4 21 22 12 25 
4 24 25 19 28 
4 8 25 17 28 
4 21 5 12 22 
4 11 17 22 28 
4 21 14 13 26 
4 21 13 5 22 
4 15 12 4 25 
4 21 12 15 25 
4 12 22 17 25 
4 8 17 11 28 
4 8 0 11 17 
4 8 11 20 28 
4 13 6 16 26 
4 14 15 24 27 
4 14 7 18 24 
4 24 27 25 28 
4 20 11 16 27 
4 13 16 22 26 
4 11 22 16 27 
4 20 18 24 27 
4 15 19 24 25 
4 20 16 23 27 
4 1 8 9 28 
4 21 13 22 26 
4 20 10 2 18 
4 14 6 13 26 
4 9 20 2 18 
4 8 19 25 28 
4 15 4 19 25 
4 10 11 3 16 
4 14 15 7 24 
4 9 20 18 24 
4 20 23 10 18 
4 15 25 24 27 
4 9 8 20 28 
4 14 18 23 27 
4 9 20 24 28 
4 9 24 19 28 
4 20 16 10 23 
4 21 22 25 27 

CELL_TYPES 61
10 
10 
10 
10 
10 
10 
10 
10 
10 
10 
10 
10 
10 
10 
10 
10 
10 
10 
10 
10 
10 
10 
10 
10 
10 
10 
10 
10 
10 
10 
10 
10 
10 
10 
10 
10 
10 
10 
10 
10 
10 
10 
10 
10 
10 
10 
10 
10 
10 
10 
10 
10 
10 
10 
10 
10 
10 
10 
10 
10 
10 
POINT_DATA 29
SCALARS GMDS_ID int 1
LOOKUP_TABLE default
0 1 2 3 4 5 6 7 8 9 10 11 12 13 14 15 16 17 18 19 20 21 22 23 24 25 26 27 28 
SCALARS geom_link_id_0 int 1
LOOKUP_TABLE default
1 2 3 4 5 6 7 8 3 4 12 10 5 8 7 9 1 6 11 2 4 6 5 1 3 2 0 0 0 


CELL_DATA 61
SCALARS GMDS_ID int 1
LOOKUP_TABLE default
0 1 2 3 4 5 6 7 8 9 10 11 12 13 14 15 16 17 18 19 20 21 22 23 24 25 26 27 28 29 30 31 32 33 34 35 36 37 38 39 40 41 42 43 44 45 46 47 48 49 50 51 52 53 54 55 56 57 58 59 60 

