# vtk DataFile Version 3.0
Generated by GMDS VTK Writer

ASCII
DATASET UNSTRUCTURED_GRID
POINTS 24 float
0 0 0
0 10 0
10 10 0
10 0 0
0 0 10
5 0 5
5 0 0
10 0 10
0 0 5
10 0 5
10 10 5
0 10 5
0 5 0
10 5 0
10 5 5
0 5 5
10 5 10
0 5 10
5 5 5
5 5 0
5 10 5
5 10 0
5 0 10
5 5 10

CELLS 6 54
8 12 15 11 1 19 18 20 21 
8 6 5 18 19 3 9 14 13 
8 0 8 15 12 6 5 18 19 
8 19 18 20 21 13 14 10 2 
8 4 8 15 17 22 5 18 23 
8 22 5 18 23 7 9 14 16 

CELL_TYPES 6
12 
12 
12 
12 
12 
12 
POINT_DATA 24
SCALARS GMDS_ID int 1
LOOKUP_TABLE default
0 1 2 3 4 5 6 7 8 9 10 11 12 13 14 15 16 17 18 19 20 21 22 23 
SCALARS geom_link_dim_0 int 1
LOOKUP_TABLE default
0 0 0 0 0 0 0 0 0 0 0 0 0 0 0 0 0 0 0 0 0 0 0 0 
SCALARS geom_link_id_0 int 1
LOOKUP_TABLE default
0 0 0 0 0 0 0 0 0 0 0 0 0 0 0 0 0 0 0 0 0 0 0 0 


CELL_DATA 6
SCALARS GMDS_ID int 1
LOOKUP_TABLE default
1 2 5 6 7 8 

SCALARS geom_link_dim_0 int 1
LOOKUP_TABLE default
0 0 0 0 0 0 

SCALARS geom_link_id_0 int 1
LOOKUP_TABLE default
0 0 0 0 0 0 

