# vtk DataFile Version 3.0
Generated by GMDS VTK Writer

ASCII
DATASET UNSTRUCTURED_GRID
POINTS 12 float
0 0 0
0 10 0
10 10 0
10 0 0
0 0 10
0 10 10
10 10 10
10 0 10
0 0 5
10 0 5
10 10 5
0 10 5

CELLS 2 18
8 0 3 2 1 8 9 10 11 
8 8 9 10 11 4 7 6 5 

CELL_TYPES 2
12 
12 
POINT_DATA 12
SCALARS GMDS_ID int 1
LOOKUP_TABLE default
0 1 2 3 4 5 6 7 8 9 10 11 
SCALARS geom_link_dim int 1
LOOKUP_TABLE default
1 1 0 1 1 0 0 1 2 2 0 1 
SCALARS geom_link_id int 1
LOOKUP_TABLE default
6 5 -1 14 1 -1 -1 8 8 9 -1 4 


CELL_DATA 2
SCALARS GMDS_ID int 1
LOOKUP_TABLE default
1 2 

SCALARS is_in int 1
LOOKUP_TABLE default
0 0 

SCALARS geom_link_dim int 1
LOOKUP_TABLE default
0 0 

SCALARS geom_link_id int 1
LOOKUP_TABLE default
-1 -1 

