# vtk DataFile Version 3.0
Generated by GMDS VTK Writer

ASCII
DATASET UNSTRUCTURED_GRID
POINTS 22 float
0 0 0
0 10 0
10 0 0
0 0 10
5 0 5
5 0 0
10 0 10
0 0 5
10 0 5
0 10 5
0 5 0
10 5 0
10 5 5
0 5 5
10 5 10
0 5 10
5 5 5
5 5 0
5 10 5
5 10 0
5 0 10
5 5 10

CELLS 5 45
8 10 13 9 1 17 16 18 19 
8 5 4 16 17 2 8 12 11 
8 0 7 13 10 5 4 16 17 
8 3 7 13 15 20 4 16 21 
8 20 4 16 21 6 8 12 14 

CELL_TYPES 5
12 
12 
12 
12 
12 
POINT_DATA 22
SCALARS GMDS_ID int 1
LOOKUP_TABLE default
0 1 3 4 5 6 7 8 9 11 12 13 14 15 16 17 18 19 20 21 22 23 
SCALARS geom_link_dim int 1
LOOKUP_TABLE default
1 1 1 1 3 2 1 2 2 1 2 1 2 1 1 1 1 1 1 1 2 2 
SCALARS geom_link_id int 1
LOOKUP_TABLE default
6 5 14 1 8 18 8 8 9 4 12 13 5 3 7 2 9 12 10 11 10 6 


CELL_DATA 5
SCALARS GMDS_ID int 1
LOOKUP_TABLE default
1 2 5 7 8 

SCALARS is_in int 1
LOOKUP_TABLE default
1 1 1 1 1 

SCALARS geom_link_dim int 1
LOOKUP_TABLE default
4 4 4 4 4 

SCALARS geom_link_id int 1
LOOKUP_TABLE default
1 1 1 1 1 

