# vtk DataFile Version 3.0
Generated by GMDS VTK Writer

ASCII
DATASET UNSTRUCTURED_GRID
POINTS 16 float
0 0 0
0 10 0
10 10 0
10 0 0
0 0 10
10 0 10
0 0 5
10 0 5
10 10 5
0 10 5
0 5 0
10 5 0
10 5 5
0 5 5
10 5 10
0 5 10

CELLS 3 27
8 0 3 7 6 10 11 12 13 
8 10 11 12 13 1 2 8 9 
8 6 7 5 4 13 12 14 15 

CELL_TYPES 3
12 
12 
12 
POINT_DATA 16
SCALARS GMDS_ID int 1
LOOKUP_TABLE default
0 1 2 3 4 7 8 9 10 11 12 13 14 15 16 17 
SCALARS geom_link_dim int 1
LOOKUP_TABLE default
1 1 0 1 1 1 2 2 0 1 2 1 2 1 1 1 
SCALARS geom_link_id int 1
LOOKUP_TABLE default
6 5 -1 14 1 8 8 9 -1 4 12 13 5 3 7 2 


CELL_DATA 3
SCALARS GMDS_ID int 1
LOOKUP_TABLE default
0 3 4 

SCALARS is_in int 1
LOOKUP_TABLE default
1 0 1 

SCALARS geom_link_dim int 1
LOOKUP_TABLE default
0 0 0 

SCALARS geom_link_id int 1
LOOKUP_TABLE default
0 0 0 

