# vtk DataFile Version 3.0
Generated by GMDS VTK Writer

ASCII
DATASET UNSTRUCTURED_GRID
POINTS 22 float
0 0 0
0 10 0
10 0 0
0 0 10
10 0 10
0 5 0
0 5 10
10 5 10
10 5 0
0 0 5
10 0 5
10 5 5
0 5 5
0 10 5
5 0 0
5 5 0
5 5 5
5 0 5
5 5 10
5 0 10
5 10 0
5 10 5

CELLS 5 45
8 14 15 16 17 2 8 11 10 
8 0 5 12 9 14 15 16 17 
8 9 12 6 3 17 16 18 19 
8 17 16 18 19 10 11 7 4 
8 1 5 12 13 20 15 16 21 

CELL_TYPES 5
12 
12 
12 
12 
12 
POINT_DATA 22
SCALARS GMDS_ID int 1
LOOKUP_TABLE default
0 1 2 3 5 6 7 8 9 10 11 12 13 15 16 17 18 19 20 21 22 23 
SCALARS geom_link_dim int 1
LOOKUP_TABLE default
1 1 1 1 1 2 1 1 1 2 2 2 1 1 2 1 1 3 2 2 1 1 
SCALARS geom_link_id int 1
LOOKUP_TABLE default
6 5 14 1 8 12 2 7 13 8 9 5 3 4 18 12 9 8 6 10 11 10 


CELL_DATA 5
SCALARS GMDS_ID int 1
LOOKUP_TABLE default
0 1 2 3 4 

SCALARS is_in int 1
LOOKUP_TABLE default
0 0 0 0 0 

SCALARS geom_link_dim int 1
LOOKUP_TABLE default
4 4 4 4 4 

SCALARS geom_link_id int 1
LOOKUP_TABLE default
1 1 1 1 1 

