# vtk DataFile Version 3.0
Generated by GMDS VTK Writer

ASCII
DATASET UNSTRUCTURED_GRID
POINTS 22 float
0 0 0
0 10 0
10 0 0
0 0 10
10 0 10
0 5 0
0 5 10
10 5 10
10 5 0
0 0 5
10 0 5
10 5 5
0 5 5
0 10 5
5 0 0
5 5 0
5 5 5
5 0 5
5 5 10
5 0 10
5 10 0
5 10 5

CELLS 41 123
2 10 4
2 2 10
2 9 3
2 0 9
2 12 16
2 14 2
2 0 14
2 5 15
2 0 5
2 5 1
2 3 6
2 4 7
2 2 8
2 16 11
2 15 8
2 8 11
2 11 7
2 5 12
2 12 6
2 10 11
2 9 12
2 1 13
2 13 12
2 9 17
2 17 10
2 14 15
2 15 16
2 17 16
2 14 17
2 6 18
2 18 7
2 3 19
2 19 4
2 18 16
2 19 18
2 19 17
2 1 20
2 13 21
2 20 15
2 16 21
2 20 21

CELL_TYPES 41
3 
3 
3 
3 
3 
3 
3 
3 
3 
3 
3 
3 
3 
3 
3 
3 
3 
3 
3 
3 
3 
3 
3 
3 
3 
3 
3 
3 
3 
3 
3 
3 
3 
3 
3 
3 
3 
3 
3 
3 
3 
POINT_DATA 22
SCALARS GMDS_ID int 1
LOOKUP_TABLE default
0 1 2 3 5 6 7 8 9 10 11 12 13 15 16 17 18 19 20 21 22 23 
SCALARS geom_link_dim int 1
LOOKUP_TABLE default
1 1 1 1 1 2 1 1 1 2 2 2 1 1 2 1 1 3 2 2 1 1 
SCALARS geom_link_id int 1
LOOKUP_TABLE default
6 5 14 1 8 12 2 7 13 8 9 5 3 4 18 12 9 8 6 10 11 10 


CELL_DATA 41
SCALARS GMDS_ID int 1
LOOKUP_TABLE default
0 1 2 3 4 5 6 7 8 9 10 11 13 14 15 16 17 18 19 20 21 23 25 26 27 28 29 30 31 32 33 34 35 36 37 38 39 40 42 43 44 

SCALARS geom_link_dim int 1
LOOKUP_TABLE default
2 2 2 2 2 2 2 3 2 2 2 2 2 3 2 2 2 3 2 3 3 2 2 3 3 3 2 3 3 2 2 2 2 3 3 3 2 2 2 2 2 

SCALARS geom_link_id int 1
LOOKUP_TABLE default
9 9 8 8 2 18 18 1 12 12 16 14 17 4 11 5 5 1 13 2 5 3 15 5 4 1 1 4 8 6 6 10 10 4 3 8 21 20 7 4 19 

