# vtk DataFile Version 3.0
Generated by GMDS VTK Writer

ASCII
DATASET UNSTRUCTURED_GRID
POINTS 22 float
0 0 0
0 10 0
10 0 0
0 0 10
5 0 5
5 0 0
10 0 10
0 0 5
10 0 5
0 10 5
0 5 0
10 5 0
10 5 5
0 5 5
10 5 10
0 5 10
5 5 5
5 5 0
5 10 5
5 10 0
5 0 10
5 5 10

CELLS 41 123
2 4 16
2 17 11
2 10 17
2 7 4
2 16 12
2 2 11
2 10 1
2 0 10
2 0 7
2 7 3
2 2 8
2 8 6
2 13 16
2 1 9
2 0 5
2 5 4
2 17 16
2 8 12
2 7 13
2 13 9
2 11 12
2 10 13
2 6 14
2 4 8
2 3 15
2 5 2
2 14 12
2 15 13
2 5 17
2 9 18
2 1 19
2 18 16
2 19 18
2 19 17
2 3 20
2 20 6
2 15 21
2 21 14
2 20 4
2 16 21
2 20 21

CELL_TYPES 41
3 
3 
3 
3 
3 
3 
3 
3 
3 
3 
3 
3 
3 
3 
3 
3 
3 
3 
3 
3 
3 
3 
3 
3 
3 
3 
3 
3 
3 
3 
3 
3 
3 
3 
3 
3 
3 
3 
3 
3 
3 
POINT_DATA 22
SCALARS GMDS_ID int 1
LOOKUP_TABLE default
0 1 3 4 5 6 7 8 9 11 12 13 14 15 16 17 18 19 20 21 22 23 
SCALARS geom_link_dim int 1
LOOKUP_TABLE default
1 1 1 1 3 2 1 2 2 1 2 1 2 1 1 1 1 1 1 1 2 2 
SCALARS geom_link_id int 1
LOOKUP_TABLE default
6 5 14 1 8 18 8 8 9 4 12 13 5 3 7 2 9 12 10 11 10 6 


CELL_DATA 41
SCALARS GMDS_ID int 1
LOOKUP_TABLE default
0 2 4 5 6 8 10 11 12 13 14 15 17 18 19 21 23 24 26 27 29 31 32 33 34 35 36 38 39 40 42 44 45 46 47 48 49 50 51 52 53 

SCALARS geom_link_dim int 1
LOOKUP_TABLE default
3 2 3 3 3 2 2 2 2 2 2 2 2 2 2 3 2 3 3 2 2 3 2 3 2 2 2 2 3 2 2 2 2 2 2 2 2 2 3 3 3 

SCALARS geom_link_id int 1
LOOKUP_TABLE default
4 11 1 8 4 17 12 12 8 8 9 9 2 3 18 8 1 2 5 15 5 5 14 4 16 18 5 13 1 20 21 4 19 7 10 10 6 6 8 4 3 

