# vtk DataFile Version 3.0
Generated by GMDS VTK Writer

ASCII
DATASET UNSTRUCTURED_GRID
POINTS 16 float
0 0 0
0 10 0
10 10 0
10 0 0
0 0 10
10 0 10
0 5 0
0 5 10
10 5 10
10 5 0
0 0 5
10 0 5
10 5 5
0 5 5
10 10 5
0 10 5

CELLS 28 84
2 11 5
2 1 2
2 3 11
2 3 0
2 10 4
2 0 10
2 5 4
2 0 6
2 6 1
2 4 7
2 5 8
2 3 9
2 9 2
2 7 8
2 6 9
2 9 12
2 12 8
2 6 13
2 13 7
2 10 11
2 11 12
2 13 12
2 10 13
2 2 14
2 1 15
2 14 12
2 15 14
2 15 13

CELL_TYPES 28
3 
3 
3 
3 
3 
3 
3 
3 
3 
3 
3 
3 
3 
3 
3 
3 
3 
3 
3 
3 
3 
3 
3 
3 
3 
3 
3 
3 
POINT_DATA 16
SCALARS GMDS_ID int 1
LOOKUP_TABLE default
0 1 2 3 4 7 8 9 10 11 12 13 14 15 16 17 
SCALARS geom_link_dim int 1
LOOKUP_TABLE default
1 1 0 1 1 1 2 1 1 1 2 2 2 1 0 1 
SCALARS geom_link_id int 1
LOOKUP_TABLE default
6 5 -1 14 1 8 12 2 7 13 8 9 5 3 -1 4 


CELL_DATA 28
SCALARS GMDS_ID int 1
LOOKUP_TABLE default
0 1 2 3 4 6 7 12 13 14 16 18 19 21 23 24 25 26 27 28 29 30 31 32 34 36 37 38 

SCALARS geom_link_dim int 1
LOOKUP_TABLE default
2 0 2 2 2 2 2 2 2 2 2 2 0 2 0 2 2 0 2 0 0 0 0 0 2 0 0 2 

SCALARS geom_link_id int 1
LOOKUP_TABLE default
9 0 9 18 8 8 10 12 12 16 14 17 0 6 0 5 5 0 13 0 0 0 0 0 3 0 0 15 

