# vtk DataFile Version 3.0
Generated by GMDS VTK Writer

ASCII
DATASET UNSTRUCTURED_GRID
POINTS 22 float
0 0 0
0 10 0
10 0 0
0 0 10
5 5 0
5 0 0
10 0 10
0 5 0
0 5 10
10 5 10
10 5 0
0 0 5
10 0 5
10 5 5
0 5 5
0 10 5
5 5 5
5 0 5
5 5 10
5 0 10
5 10 0
5 10 5

CELLS 41 123
2 12 6
2 2 12
2 11 3
2 7 4
2 0 11
2 4 16
2 11 17
2 16 13
2 17 12
2 0 7
2 7 1
2 3 8
2 0 5
2 6 9
2 14 16
2 2 10
2 17 16
2 5 4
2 10 13
2 13 9
2 7 14
2 14 8
2 12 13
2 11 14
2 4 10
2 1 15
2 5 2
2 15 14
2 5 17
2 8 18
2 18 9
2 3 19
2 19 6
2 18 16
2 19 18
2 19 17
2 1 20
2 15 21
2 20 4
2 16 21
2 20 21

CELL_TYPES 41
3 
3 
3 
3 
3 
3 
3 
3 
3 
3 
3 
3 
3 
3 
3 
3 
3 
3 
3 
3 
3 
3 
3 
3 
3 
3 
3 
3 
3 
3 
3 
3 
3 
3 
3 
3 
3 
3 
3 
3 
3 
POINT_DATA 22
SCALARS GMDS_ID int 1
LOOKUP_TABLE default
0 1 3 4 5 6 7 8 9 10 11 12 13 14 15 17 18 19 20 21 22 23 
SCALARS geom_link_dim int 1
LOOKUP_TABLE default
1 1 1 1 1 2 1 2 1 1 1 2 2 2 1 1 1 3 2 2 1 1 
SCALARS geom_link_id int 1
LOOKUP_TABLE default
6 5 14 1 12 18 8 12 2 7 13 8 9 5 3 4 9 8 6 10 11 10 


CELL_DATA 41
SCALARS GMDS_ID int 1
LOOKUP_TABLE default
0 2 4 5 6 8 9 10 11 12 13 14 15 16 17 18 20 22 24 25 26 27 29 31 33 34 35 38 39 40 41 42 43 44 45 46 47 49 51 52 53 

SCALARS geom_link_dim int 1
LOOKUP_TABLE default
2 2 2 3 2 2 3 3 3 2 2 2 2 2 2 2 4 3 2 2 3 2 3 3 2 2 2 2 3 2 2 2 2 3 3 3 2 2 2 2 2 

SCALARS geom_link_id int 1
LOOKUP_TABLE default
9 9 8 1 8 1 8 4 8 12 12 16 18 14 2 17 1 1 5 5 5 13 2 5 11 3 18 15 8 6 6 10 10 4 3 8 21 20 7 4 19 

