# vtk DataFile Version 3.0
Generated by GMDS VTK Writer

ASCII
DATASET UNSTRUCTURED_GRID
POINTS 16 float
0 0 0
0 10 0
10 10 0
10 0 0
0 0 10
10 0 10
0 0 5
10 0 5
10 10 5
0 10 5
0 5 0
10 5 0
10 5 5
0 5 5
10 5 10
0 5 10

CELLS 28 84
2 1 2
2 3 0
2 5 4
2 3 11
2 11 2
2 10 1
2 0 10
2 0 6
2 6 4
2 3 7
2 7 5
2 2 8
2 1 9
2 6 7
2 9 8
2 7 12
2 12 8
2 6 13
2 13 9
2 10 11
2 11 12
2 13 12
2 10 13
2 5 14
2 4 15
2 14 12
2 15 14
2 15 13

CELL_TYPES 28
3 
3 
3 
3 
3 
3 
3 
3 
3 
3 
3 
3 
3 
3 
3 
3 
3 
3 
3 
3 
3 
3 
3 
3 
3 
3 
3 
3 
POINT_DATA 16
SCALARS GMDS_ID int 1
LOOKUP_TABLE default
0 1 2 3 4 7 8 9 10 11 12 13 14 15 16 17 
SCALARS geom_link_dim_0 int 1
LOOKUP_TABLE default
0 0 0 0 0 0 0 0 0 0 0 0 0 0 0 0 
SCALARS geom_link_id_0 int 1
LOOKUP_TABLE default
0 0 0 0 0 0 0 0 0 0 0 0 0 0 0 0 


CELL_DATA 28
SCALARS GMDS_ID int 1
LOOKUP_TABLE default
1 3 7 8 9 10 11 12 13 14 15 16 18 20 22 24 25 26 27 28 29 30 31 32 34 36 37 38 

SCALARS geom_link_dim_0 int 1
LOOKUP_TABLE default
0 0 0 0 0 0 0 0 0 0 0 0 0 0 0 0 0 0 0 0 0 0 0 0 0 0 0 0 

SCALARS geom_link_id_0 int 1
LOOKUP_TABLE default
0 0 0 0 0 0 0 0 0 0 0 0 0 0 0 0 0 0 0 0 0 0 0 0 0 0 0 0 

