# vtk DataFile Version 3.0
Generated by GMDS VTK Writer

ASCII
DATASET UNSTRUCTURED_GRID
POINTS 24 float
0 0 0
0 10 0
10 10 0
10 0 0
0 0 10
5 5 0
5 0 0
10 0 10
0 5 0
0 5 10
10 5 10
10 5 0
0 0 5
10 0 5
10 5 5
0 5 5
10 10 5
0 10 5
5 5 5
5 0 5
5 5 10
5 0 10
5 10 0
5 10 5

CELLS 29 145
4 13 14 10 7 
4 3 11 14 13 
4 20 18 14 10 
4 9 15 18 20 
4 6 5 18 19 
4 6 19 13 3 
4 5 18 14 11 
4 0 12 19 6 
4 19 18 14 13 
4 12 15 18 19 
4 0 8 15 12 
4 12 15 9 4 
4 2 11 14 16 
4 8 15 18 5 
4 6 5 11 3 
4 1 8 15 17 
4 0 8 5 6 
4 4 9 20 21 
4 21 20 10 7 
4 4 12 19 21 
4 21 19 13 7 
4 19 18 20 21 
4 1 8 5 22 
4 22 5 11 2 
4 15 17 23 18 
4 18 23 16 14 
4 1 17 23 22 
4 22 23 16 2 
4 22 5 18 23 

CELL_TYPES 29
9 
9 
9 
9 
9 
9 
9 
9 
9 
9 
9 
9 
9 
9 
9 
9 
9 
9 
9 
9 
9 
9 
9 
9 
9 
9 
9 
9 
9 
POINT_DATA 24
SCALARS GMDS_ID int 1
LOOKUP_TABLE default
0 1 2 3 4 5 6 7 8 9 10 11 12 13 14 15 16 17 18 19 20 21 22 23 
SCALARS geom_link_dim int 1
LOOKUP_TABLE default
1 1 0 1 1 1 2 1 2 1 1 1 2 2 2 1 0 1 1 3 2 2 1 1 
SCALARS geom_link_id int 1
LOOKUP_TABLE default
6 5 -1 14 1 12 18 8 12 2 7 13 8 9 5 3 -1 4 9 8 6 10 11 10 


CELL_DATA 29
SCALARS GMDS_ID int 1
LOOKUP_TABLE default
0 1 2 4 6 7 9 10 11 14 17 18 20 21 23 24 25 27 28 29 30 31 32 33 34 35 36 37 38 

SCALARS geom_link_dim int 1
LOOKUP_TABLE default
0 0 0 0 0 0 0 0 0 0 0 0 0 0 0 0 0 0 0 0 0 0 0 0 0 0 0 0 0 

SCALARS geom_link_id int 1
LOOKUP_TABLE default
0 0 -1 -1 -1 -1 -1 -1 -1 -1 0 0 0 -1 -1 0 -1 -1 -1 -1 -1 -1 -1 -1 -1 -1 -1 -1 -1 

