# vtk DataFile Version 3.0
Generated by GMDS VTK Writer

ASCII
DATASET UNSTRUCTURED_GRID
POINTS 24 float
0 0 0
0 10 0
10 0 0
0 0 10
0 10 10
10 0 10
0 5 0
0 5 10
10 5 10
10 5 0
0 0 5
10 0 5
10 5 5
0 5 5
0 10 5
5 0 0
5 5 0
5 5 5
5 0 5
5 5 10
5 0 10
5 10 0
5 10 5
5 10 10

CELLS 29 145
4 11 12 8 5 
4 2 9 12 11 
4 0 10 18 15 
4 18 17 12 11 
4 10 13 17 18 
4 16 17 12 9 
4 6 13 17 16 
4 15 16 9 2 
4 0 6 16 15 
4 0 6 13 10 
4 10 13 7 3 
4 1 6 13 14 
4 14 13 7 4 
4 15 18 11 2 
4 15 16 17 18 
4 7 13 17 19 
4 19 17 12 8 
4 3 7 19 20 
4 20 19 8 5 
4 3 10 18 20 
4 20 18 11 5 
4 18 17 19 20 
4 1 6 16 21 
4 13 14 22 17 
4 1 14 22 21 
4 21 16 17 22 
4 4 7 19 23 
4 4 14 22 23 
4 22 17 19 23 

CELL_TYPES 29
9 
9 
9 
9 
9 
9 
9 
9 
9 
9 
9 
9 
9 
9 
9 
9 
9 
9 
9 
9 
9 
9 
9 
9 
9 
9 
9 
9 
9 
POINT_DATA 24
SCALARS GMDS_ID int 1
LOOKUP_TABLE default
0 1 3 4 5 7 8 9 10 11 12 13 14 15 17 18 19 20 21 22 23 24 25 26 
SCALARS geom_link_dim_0 int 1
LOOKUP_TABLE default
0 0 0 0 0 0 0 0 0 0 0 0 0 0 0 0 0 0 0 0 0 0 0 0 
SCALARS geom_link_id_0 int 1
LOOKUP_TABLE default
0 0 0 0 0 0 0 0 0 0 0 0 0 0 0 0 0 0 0 0 0 0 0 0 


CELL_DATA 29
SCALARS GMDS_ID int 1
LOOKUP_TABLE default
0 1 2 4 6 7 10 11 14 17 18 24 25 27 28 29 30 31 32 33 34 35 36 38 40 42 43 45 47 

SCALARS geom_link_dim_0 int 1
LOOKUP_TABLE default
0 0 0 0 0 0 0 0 0 0 0 0 0 0 0 0 0 0 0 0 0 0 0 0 0 0 0 0 0 

SCALARS geom_link_id_0 int 1
LOOKUP_TABLE default
0 0 0 0 0 0 0 0 0 0 0 0 0 0 0 0 0 0 0 0 0 0 0 0 0 0 0 0 0 

