# vtk DataFile Version 3.0
Generated by GMDS VTK Writer

ASCII
DATASET UNSTRUCTURED_GRID
POINTS 16 float
0 0 0
0 10 0
10 10 0
10 0 0
0 0 10
10 0 10
0 0 5
10 0 5
10 10 5
0 10 5
0 5 0
10 5 0
10 5 5
0 5 5
10 5 10
0 5 10

CELLS 16 80
4 11 12 8 2 
4 3 7 12 11 
4 10 11 2 1 
4 0 3 11 10 
4 0 3 7 6 
4 6 7 5 4 
4 1 2 8 9 
4 6 7 12 13 
4 13 12 8 9 
4 0 6 13 10 
4 10 13 9 1 
4 10 11 12 13 
4 5 7 12 14 
4 4 5 14 15 
4 4 6 13 15 
4 13 12 14 15 

CELL_TYPES 16
9 
9 
9 
9 
9 
9 
9 
9 
9 
9 
9 
9 
9 
9 
9 
9 
POINT_DATA 16
SCALARS GMDS_ID int 1
LOOKUP_TABLE default
0 1 2 3 4 7 8 9 10 11 12 13 14 15 16 17 
SCALARS geom_link_dim_0 int 1
LOOKUP_TABLE default
0 0 0 0 0 0 0 0 0 0 0 0 0 0 0 0 
SCALARS geom_link_id_0 int 1
LOOKUP_TABLE default
0 0 0 0 0 0 0 0 0 0 0 0 0 0 0 0 


CELL_DATA 16
SCALARS GMDS_ID int 1
LOOKUP_TABLE default
1 2 3 4 6 7 10 15 16 17 18 19 20 22 24 26 

SCALARS geom_link_dim_0 int 1
LOOKUP_TABLE default
0 0 0 0 0 0 0 0 0 0 0 0 0 0 0 0 

SCALARS geom_link_id_0 int 1
LOOKUP_TABLE default
0 0 0 0 0 0 0 0 0 0 0 0 0 0 0 0 

