# vtk DataFile Version 3.0
Generated by GMDS VTK Writer

ASCII
DATASET UNSTRUCTURED_GRID
POINTS 22 float
0 0 0
0 10 0
10 0 0
0 0 10
5 0 5
5 0 0
10 0 10
0 0 5
10 0 5
0 10 5
0 5 0
10 5 0
10 5 5
0 5 5
10 5 10
0 5 10
5 5 5
5 5 0
5 10 5
5 10 0
5 0 10
5 5 10

CELLS 25 125
4 2 8 12 11 
4 9 13 16 18 
4 5 4 16 17 
4 5 17 11 2 
4 4 16 12 8 
4 0 10 17 5 
4 17 16 12 11 
4 10 13 16 17 
4 0 7 13 10 
4 10 13 9 1 
4 6 8 12 14 
4 7 13 16 4 
4 5 4 8 2 
4 3 7 13 15 
4 0 7 4 5 
4 1 9 18 19 
4 1 10 17 19 
4 17 16 18 19 
4 3 7 4 20 
4 20 4 8 6 
4 13 15 21 16 
4 16 21 14 12 
4 3 15 21 20 
4 20 21 14 6 
4 20 4 16 21 

CELL_TYPES 25
9 
9 
9 
9 
9 
9 
9 
9 
9 
9 
9 
9 
9 
9 
9 
9 
9 
9 
9 
9 
9 
9 
9 
9 
9 
POINT_DATA 22
SCALARS GMDS_ID int 1
LOOKUP_TABLE default
0 1 3 4 5 6 7 8 9 11 12 13 14 15 16 17 18 19 20 21 22 23 
SCALARS geom_link_dim_0 int 1
LOOKUP_TABLE default
0 0 0 0 0 0 0 0 0 0 0 0 0 0 0 0 0 0 0 0 0 0 
SCALARS geom_link_id_0 int 1
LOOKUP_TABLE default
0 0 0 0 0 0 0 0 0 0 0 0 0 0 0 0 0 0 0 0 0 0 


CELL_DATA 25
SCALARS GMDS_ID int 1
LOOKUP_TABLE default
2 5 8 9 11 12 13 14 17 18 20 21 23 24 25 27 29 31 32 33 34 35 36 37 38 

SCALARS geom_link_dim_0 int 1
LOOKUP_TABLE default
0 0 0 0 0 0 0 0 0 0 0 0 0 0 0 0 0 0 0 0 0 0 0 0 0 

SCALARS geom_link_id_0 int 1
LOOKUP_TABLE default
0 0 0 0 0 0 0 0 0 0 0 0 0 0 0 0 0 0 0 0 0 0 0 0 0 

