# vtk DataFile Version 3.0
Generated by GMDS VTK Writer

ASCII
DATASET UNSTRUCTURED_GRID
POINTS 22 float
0 0 0
0 10 0
10 0 0
0 0 10
10 0 10
0 5 0
0 5 10
10 5 10
10 5 0
0 0 5
10 0 5
10 5 5
0 5 5
0 10 5
5 0 0
5 5 0
5 5 5
5 0 5
5 5 10
5 0 10
5 10 0
5 10 5

CELLS 25 125
4 10 11 7 4 
4 2 8 11 10 
4 0 9 17 14 
4 17 16 11 10 
4 9 12 16 17 
4 15 16 11 8 
4 5 12 16 15 
4 14 15 8 2 
4 0 5 15 14 
4 0 5 12 9 
4 9 12 6 3 
4 1 5 12 13 
4 14 17 10 2 
4 14 15 16 17 
4 6 12 16 18 
4 18 16 11 7 
4 3 6 18 19 
4 19 18 7 4 
4 3 9 17 19 
4 19 17 10 4 
4 17 16 18 19 
4 1 5 15 20 
4 12 13 21 16 
4 1 13 21 20 
4 20 15 16 21 

CELL_TYPES 25
9 
9 
9 
9 
9 
9 
9 
9 
9 
9 
9 
9 
9 
9 
9 
9 
9 
9 
9 
9 
9 
9 
9 
9 
9 
POINT_DATA 22
SCALARS GMDS_ID int 1
LOOKUP_TABLE default
0 1 3 4 7 8 9 10 11 12 13 14 15 17 18 19 20 21 22 23 24 25 
SCALARS geom_link_dim_0 int 1
LOOKUP_TABLE default
0 0 0 0 0 0 0 0 0 0 0 0 0 0 0 0 0 0 0 0 0 0 
SCALARS geom_link_id_0 int 1
LOOKUP_TABLE default
0 0 0 0 0 0 0 0 0 0 0 0 0 0 0 0 0 0 0 0 0 0 


CELL_DATA 25
SCALARS GMDS_ID int 1
LOOKUP_TABLE default
0 1 2 4 6 7 10 11 14 17 18 24 27 28 29 30 31 32 33 34 35 36 38 40 42 

SCALARS geom_link_dim_0 int 1
LOOKUP_TABLE default
0 0 0 0 0 0 0 0 0 0 0 0 0 0 0 0 0 0 0 0 0 0 0 0 0 

SCALARS geom_link_id_0 int 1
LOOKUP_TABLE default
0 0 0 0 0 0 0 0 0 0 0 0 0 0 0 0 0 0 0 0 0 0 0 0 0 

