# vtk DataFile Version 3.0
Generated by GMDS VTK Writer

ASCII
DATASET UNSTRUCTURED_GRID
POINTS 22 float
0 0 0
0 10 0
10 0 0
0 0 10
10 0 10
0 5 0
0 5 10
10 5 10
10 5 0
0 0 5
10 0 5
10 5 5
0 5 5
0 10 5
5 0 0
5 5 0
5 5 5
5 0 5
5 5 10
5 0 10
5 10 0
5 10 5

CELLS 25 125
4 10 11 7 4 
4 2 8 11 10 
4 0 9 17 14 
4 17 16 11 10 
4 9 12 16 17 
4 15 16 11 8 
4 5 12 16 15 
4 14 15 8 2 
4 0 5 15 14 
4 0 5 12 9 
4 9 12 6 3 
4 1 5 12 13 
4 14 17 10 2 
4 14 15 16 17 
4 6 12 16 18 
4 18 16 11 7 
4 3 6 18 19 
4 19 18 7 4 
4 3 9 17 19 
4 19 17 10 4 
4 17 16 18 19 
4 1 5 15 20 
4 12 13 21 16 
4 1 13 21 20 
4 20 15 16 21 

CELL_TYPES 25
9 
9 
9 
9 
9 
9 
9 
9 
9 
9 
9 
9 
9 
9 
9 
9 
9 
9 
9 
9 
9 
9 
9 
9 
9 
POINT_DATA 22
SCALARS GMDS_ID int 1
LOOKUP_TABLE default
0 1 2 3 5 6 7 8 9 10 11 12 13 15 16 17 18 19 20 21 22 23 
SCALARS geom_link_dim int 1
LOOKUP_TABLE default
1 1 1 1 1 2 1 1 1 2 2 2 1 1 2 1 1 3 2 2 1 1 
SCALARS geom_link_id int 1
LOOKUP_TABLE default
6 5 14 1 8 12 2 7 13 8 9 5 3 4 18 12 9 8 6 10 11 10 


CELL_DATA 25
SCALARS GMDS_ID int 1
LOOKUP_TABLE default
0 1 2 3 4 5 6 7 8 9 10 12 13 14 15 16 17 18 19 20 21 22 23 25 26 

SCALARS geom_link_dim int 1
LOOKUP_TABLE default
3 3 3 3 3 3 3 3 3 3 3 3 3 4 3 3 3 3 3 3 4 3 3 3 3 

SCALARS geom_link_id int 1
LOOKUP_TABLE default
2 2 8 4 5 4 1 1 1 5 5 5 8 1 4 4 3 3 8 8 1 1 9 6 7 

