# vtk DataFile Version 3.0
Generated by GMDS VTK Writer

ASCII
DATASET UNSTRUCTURED_GRID
POINTS 22 float
0 0 0
0 10 0
10 0 0
0 0 10
5 5 0
5 0 0
10 0 10
0 5 0
0 5 10
10 5 10
10 5 0
0 0 5
10 0 5
10 5 5
0 5 5
0 10 5
5 5 5
5 0 5
5 5 10
5 0 10
5 10 0
5 10 5

CELLS 25 125
4 12 13 9 6 
4 2 10 13 12 
4 18 16 13 9 
4 8 14 16 18 
4 5 4 16 17 
4 5 17 12 2 
4 4 16 13 10 
4 0 11 17 5 
4 17 16 13 12 
4 11 14 16 17 
4 0 7 14 11 
4 11 14 8 3 
4 7 14 16 4 
4 5 4 10 2 
4 1 7 14 15 
4 0 7 4 5 
4 3 8 18 19 
4 19 18 9 6 
4 3 11 17 19 
4 19 17 12 6 
4 17 16 18 19 
4 1 7 4 20 
4 14 15 21 16 
4 1 15 21 20 
4 20 4 16 21 

CELL_TYPES 25
9 
9 
9 
9 
9 
9 
9 
9 
9 
9 
9 
9 
9 
9 
9 
9 
9 
9 
9 
9 
9 
9 
9 
9 
9 
POINT_DATA 22
SCALARS GMDS_ID int 1
LOOKUP_TABLE default
0 1 3 4 5 6 7 8 9 10 11 12 13 14 15 17 18 19 20 21 22 23 
SCALARS geom_link_dim int 1
LOOKUP_TABLE default
1 1 1 1 1 2 1 2 1 1 1 2 2 2 1 1 1 3 2 2 1 1 
SCALARS geom_link_id int 1
LOOKUP_TABLE default
6 5 14 1 12 18 8 12 2 7 13 8 9 5 3 4 9 8 6 10 11 10 


CELL_DATA 25
SCALARS GMDS_ID int 1
LOOKUP_TABLE default
0 1 2 4 6 7 9 10 11 14 17 18 21 23 24 25 27 28 29 30 31 32 34 36 38 

SCALARS geom_link_dim int 1
LOOKUP_TABLE default
3 3 3 3 4 3 3 3 4 4 3 3 4 3 3 3 3 3 3 3 4 3 3 3 3 

SCALARS geom_link_id int 1
LOOKUP_TABLE default
2 2 4 4 1 8 4 8 1 1 5 5 1 1 5 1 3 3 8 8 1 1 9 6 7 

