# vtk DataFile Version 3.0
Generated by GMDS VTK Writer

ASCII
DATASET UNSTRUCTURED_GRID
POINTS 24 float
0 0 0
0 10 0
10 0 0
0 0 10
10 10 10
0 5 0
0 5 10
10 5 10
10 5 0
0 0 5
10 0 5
10 5 5
0 5 5
10 10 5
0 10 5
5 0 0
5 5 0
5 5 5
5 0 5
5 5 10
5 0 10
5 10 0
5 10 5
5 10 10

CELLS 5 45
8 15 16 17 18 2 8 11 10 
8 0 5 12 9 15 16 17 18 
8 9 12 6 3 18 17 19 20 
8 1 5 12 14 21 16 17 22 
8 22 17 19 23 13 11 7 4 

CELL_TYPES 5
12 
12 
12 
12 
12 
POINT_DATA 24
SCALARS GMDS_ID int 1
LOOKUP_TABLE default
0 1 3 4 6 8 9 10 11 12 13 14 15 16 17 18 19 20 21 22 23 24 25 26 
SCALARS geom_link_dim_0 int 1
LOOKUP_TABLE default
0 0 0 0 0 0 0 0 0 0 0 0 0 0 0 0 0 0 0 0 0 0 0 0 
SCALARS geom_link_id_0 int 1
LOOKUP_TABLE default
0 0 0 0 0 0 0 0 0 0 0 0 0 0 0 0 0 0 0 0 0 0 0 0 


CELL_DATA 5
SCALARS GMDS_ID int 1
LOOKUP_TABLE default
1 2 6 8 11 

SCALARS geom_link_dim_0 int 1
LOOKUP_TABLE default
0 0 0 0 0 

SCALARS geom_link_id_0 int 1
LOOKUP_TABLE default
0 0 0 0 0 

