# vtk DataFile Version 3.0
Generated by GMDS VTK Writer

ASCII
DATASET UNSTRUCTURED_GRID
POINTS 22 float
0 0 0
0 10 0
10 10 0
10 0 0
0 0 10
5 5 0
5 0 0
0 5 0
0 5 10
10 5 0
0 0 5
10 0 5
10 5 5
0 5 5
10 10 5
0 10 5
5 5 5
5 0 5
5 5 10
5 0 10
5 10 0
5 10 5

CELLS 5 45
8 10 13 8 4 17 16 18 19 
8 6 5 16 17 3 9 12 11 
8 0 7 13 10 6 5 16 17 
8 1 7 13 15 20 5 16 21 
8 20 5 16 21 2 9 12 14 

CELL_TYPES 5
12 
12 
12 
12 
12 
POINT_DATA 22
SCALARS GMDS_ID int 1
LOOKUP_TABLE default
0 1 2 3 4 5 6 8 9 11 12 13 14 15 16 17 18 19 20 21 22 23 
SCALARS geom_link_dim int 1
LOOKUP_TABLE default
1 1 0 1 1 1 2 2 1 1 2 1 1 1 0 1 1 1 1 1 1 1 
SCALARS geom_link_id int 1
LOOKUP_TABLE default
1 3 -1 7 2 12 18 10 6 11 4 10 17 5 -1 4 15 9 14 8 13 16 


CELL_DATA 5
SCALARS GMDS_ID int 1
LOOKUP_TABLE default
1 2 5 7 8 

SCALARS is_in int 1
LOOKUP_TABLE default
1 1 1 1 0 

SCALARS geom_link_dim int 1
LOOKUP_TABLE default
0 0 0 0 0 

SCALARS geom_link_id int 1
LOOKUP_TABLE default
0 0 0 0 0 

