# vtk DataFile Version 3.0
Generated by GMDS VTK Writer

ASCII
DATASET UNSTRUCTURED_GRID
POINTS 25 float
0 0 0
0 10 0
10 0 0
0 0 10
0 10 10
10 10 10
0 5 0
0 5 10
10 5 10
10 5 0
0 0 5
10 0 5
10 5 5
0 5 5
10 10 5
0 10 5
5 0 0
5 5 0
5 5 5
5 0 5
5 5 10
5 0 10
5 10 0
5 10 5
5 10 10

CELLS 6 54
8 16 17 18 19 2 9 12 11 
8 0 6 13 10 16 17 18 19 
8 10 13 7 3 19 18 20 21 
8 1 6 13 15 22 17 18 23 
8 15 13 7 4 23 18 20 24 
8 23 18 20 24 14 12 8 5 

CELL_TYPES 6
12 
12 
12 
12 
12 
12 
POINT_DATA 25
SCALARS GMDS_ID int 1
LOOKUP_TABLE default
0 1 3 4 5 6 8 9 10 11 12 13 14 15 16 17 18 19 20 21 22 23 24 25 26 
SCALARS geom_link_dim_0 int 1
LOOKUP_TABLE default
0 0 0 0 0 0 0 0 0 0 0 0 0 0 0 0 0 0 0 0 0 0 0 0 0 
SCALARS geom_link_id_0 int 1
LOOKUP_TABLE default
0 0 0 0 0 0 0 0 0 0 0 0 0 0 0 0 0 0 0 0 0 0 0 0 0 


CELL_DATA 6
SCALARS GMDS_ID int 1
LOOKUP_TABLE default
1 2 6 8 10 11 

SCALARS geom_link_dim_0 int 1
LOOKUP_TABLE default
0 0 0 0 0 0 

SCALARS geom_link_id_0 int 1
LOOKUP_TABLE default
0 0 0 0 0 0 

