# vtk DataFile Version 3.0
Generated by GMDS VTK Writer

ASCII
DATASET UNSTRUCTURED_GRID
POINTS 20 float
0 0 0
0 10 0
10 0 0
0 0 10
0 5 0
0 5 10
10 5 0
0 0 5
10 0 5
10 5 5
0 5 5
0 10 5
5 0 0
5 5 0
5 5 5
5 0 5
5 5 10
5 0 10
5 10 0
5 10 5

CELLS 4 36
8 12 13 14 15 2 6 9 8 
8 0 4 10 7 12 13 14 15 
8 7 10 5 3 15 14 16 17 
8 1 4 10 11 18 13 14 19 

CELL_TYPES 4
12 
12 
12 
12 
POINT_DATA 20
SCALARS GMDS_ID int 1
LOOKUP_TABLE default
0 1 3 4 8 9 11 12 13 14 15 17 18 19 20 21 22 23 24 25 
SCALARS geom_link_dim int 1
LOOKUP_TABLE default
1 1 1 1 2 1 1 2 1 1 1 1 2 1 1 1 1 1 1 1 
SCALARS geom_link_id int 1
LOOKUP_TABLE default
1 3 7 2 10 6 11 4 10 17 5 4 18 12 15 9 14 8 13 16 


CELL_DATA 4
SCALARS GMDS_ID int 1
LOOKUP_TABLE default
1 2 6 8 

SCALARS is_in int 1
LOOKUP_TABLE default
1 1 1 1 

SCALARS geom_link_dim int 1
LOOKUP_TABLE default
4 4 4 4 

SCALARS geom_link_id int 1
LOOKUP_TABLE default
1 1 1 1 

