# vtk DataFile Version 3.0
Generated by GMDS VTK Writer

ASCII
DATASET UNSTRUCTURED_GRID
POINTS 20 float
0 0 0
0 10 0
10 0 0
0 0 10
0 5 0
0 5 10
10 5 0
0 0 5
10 0 5
10 5 5
0 5 5
0 10 5
5 0 0
5 5 0
5 5 5
5 0 5
5 5 10
5 0 10
5 10 0
5 10 5

CELLS 36 108
2 2 8
2 7 3
2 0 7
2 10 14
2 12 2
2 0 12
2 4 13
2 0 4
2 4 1
2 3 5
2 2 6
2 14 9
2 13 6
2 6 9
2 4 10
2 10 5
2 8 9
2 7 10
2 1 11
2 11 10
2 7 15
2 15 8
2 12 13
2 13 14
2 15 14
2 12 15
2 5 16
2 3 17
2 16 14
2 17 16
2 17 15
2 1 18
2 11 19
2 18 13
2 14 19
2 18 19

CELL_TYPES 36
3 
3 
3 
3 
3 
3 
3 
3 
3 
3 
3 
3 
3 
3 
3 
3 
3 
3 
3 
3 
3 
3 
3 
3 
3 
3 
3 
3 
3 
3 
3 
3 
3 
3 
3 
3 
POINT_DATA 20
SCALARS GMDS_ID int 1
LOOKUP_TABLE default
0 1 3 4 8 9 11 12 13 14 15 17 18 19 20 21 22 23 24 25 
SCALARS geom_link_dim_0 int 1
LOOKUP_TABLE default
0 0 0 0 0 0 0 0 0 0 0 0 0 0 0 0 0 0 0 0 
SCALARS geom_link_id_0 int 1
LOOKUP_TABLE default
0 0 0 0 0 0 0 0 0 0 0 0 0 0 0 0 0 0 0 0 


CELL_DATA 36
SCALARS GMDS_ID int 1
LOOKUP_TABLE default
2 4 6 8 9 10 11 12 13 14 18 20 22 24 26 27 29 31 34 38 39 40 41 42 43 44 45 47 49 50 51 52 54 56 57 58 

SCALARS geom_link_dim_0 int 1
LOOKUP_TABLE default
0 0 0 0 0 0 0 0 0 0 0 0 0 0 0 0 0 0 0 0 0 0 0 0 0 0 0 0 0 0 0 0 0 0 0 0 

SCALARS geom_link_id_0 int 1
LOOKUP_TABLE default
0 0 0 0 0 0 0 0 0 0 0 0 0 0 0 0 0 0 0 0 0 0 0 0 0 0 0 0 0 0 0 0 0 0 0 0 

