# vtk DataFile Version 3.0
Generated by GMDS VTK Writer

ASCII
DATASET UNSTRUCTURED_GRID
POINTS 22 float
0 0 0
0 10 0
10 10 0
10 0 0
0 0 10
5 5 0
5 0 0
0 5 0
0 5 10
10 5 0
0 0 5
10 0 5
10 5 5
0 5 5
10 10 5
0 10 5
5 5 5
5 0 5
5 5 10
5 0 10
5 10 0
5 10 5

CELLS 41 123
2 3 11
2 10 4
2 7 5
2 0 10
2 5 16
2 10 17
2 16 12
2 17 11
2 0 7
2 7 1
2 4 8
2 0 6
2 13 16
2 3 9
2 9 2
2 17 16
2 6 5
2 9 12
2 7 13
2 13 8
2 11 12
2 10 13
2 2 14
2 5 9
2 1 15
2 6 3
2 14 12
2 15 13
2 6 17
2 8 18
2 4 19
2 18 16
2 19 18
2 19 17
2 1 20
2 20 2
2 15 21
2 21 14
2 20 5
2 16 21
2 20 21

CELL_TYPES 41
3 
3 
3 
3 
3 
3 
3 
3 
3 
3 
3 
3 
3 
3 
3 
3 
3 
3 
3 
3 
3 
3 
3 
3 
3 
3 
3 
3 
3 
3 
3 
3 
3 
3 
3 
3 
3 
3 
3 
3 
3 
POINT_DATA 22
SCALARS GMDS_ID int 1
LOOKUP_TABLE default
0 1 2 3 4 5 6 8 9 11 12 13 14 15 16 17 18 19 20 21 22 23 
SCALARS geom_link_dim_0 int 1
LOOKUP_TABLE default
0 0 0 0 0 0 0 0 0 0 0 0 0 0 0 0 0 0 0 0 0 0 
SCALARS geom_link_id_0 int 1
LOOKUP_TABLE default
0 0 0 0 0 0 0 0 0 0 0 0 0 0 0 0 0 0 0 0 0 0 


CELL_DATA 41
SCALARS GMDS_ID int 1
LOOKUP_TABLE default
2 4 5 6 8 9 10 11 12 13 14 15 17 18 19 20 22 24 26 27 29 31 32 33 34 35 36 38 39 40 42 44 45 46 47 48 49 50 51 52 53 

SCALARS geom_link_dim_0 int 1
LOOKUP_TABLE default
0 0 0 0 0 0 0 0 0 0 0 0 0 0 0 0 0 0 0 0 0 0 0 0 0 0 0 0 0 0 0 0 0 0 0 0 0 0 0 0 0 

SCALARS geom_link_id_0 int 1
LOOKUP_TABLE default
0 0 0 0 0 0 0 0 0 0 0 0 0 0 0 0 0 0 0 0 0 0 0 0 0 0 0 0 0 0 0 0 0 0 0 0 0 0 0 0 0 

