# vtk DataFile Version 3.0
Generated by GMDS VTK Writer

ASCII
DATASET UNSTRUCTURED_GRID
POINTS 24 float
0 0 0
0 10 0
10 0 0
0 0 10
10 10 10
0 5 0
0 5 10
10 5 10
10 5 0
0 0 5
10 0 5
10 5 5
0 5 5
10 10 5
0 10 5
5 0 0
5 5 0
5 5 5
5 0 5
5 5 10
5 0 10
5 10 0
5 10 5
5 10 10

CELLS 45 135
2 2 10
2 9 3
2 0 9
2 12 17
2 15 2
2 0 15
2 5 16
2 0 5
2 5 1
2 3 6
2 7 4
2 2 8
2 17 11
2 16 8
2 8 11
2 11 7
2 5 12
2 12 6
2 10 11
2 9 12
2 13 4
2 1 14
2 13 11
2 14 12
2 9 18
2 18 10
2 15 16
2 16 17
2 18 17
2 15 18
2 6 19
2 19 7
2 3 20
2 19 17
2 20 19
2 20 18
2 1 21
2 14 22
2 22 13
2 21 16
2 17 22
2 21 22
2 23 4
2 23 19
2 23 22

CELL_TYPES 45
3 
3 
3 
3 
3 
3 
3 
3 
3 
3 
3 
3 
3 
3 
3 
3 
3 
3 
3 
3 
3 
3 
3 
3 
3 
3 
3 
3 
3 
3 
3 
3 
3 
3 
3 
3 
3 
3 
3 
3 
3 
3 
3 
3 
3 
POINT_DATA 24
SCALARS GMDS_ID int 1
LOOKUP_TABLE default
0 1 3 4 6 8 9 10 11 12 13 14 15 16 17 18 19 20 21 22 23 24 25 26 
SCALARS geom_link_dim_0 int 1
LOOKUP_TABLE default
0 0 0 0 0 0 0 0 0 0 0 0 0 0 0 0 0 0 0 0 0 0 0 0 
SCALARS geom_link_id_0 int 1
LOOKUP_TABLE default
0 0 0 0 0 0 0 0 0 0 0 0 0 0 0 0 0 0 0 0 0 0 0 0 


CELL_DATA 45
SCALARS GMDS_ID int 1
LOOKUP_TABLE default
2 4 6 8 9 10 11 12 13 14 17 18 20 22 24 25 26 27 29 31 33 34 36 38 39 40 41 42 43 44 45 46 47 49 50 51 52 54 55 56 57 58 60 61 62 

SCALARS geom_link_dim_0 int 1
LOOKUP_TABLE default
0 0 0 0 0 0 0 0 0 0 0 0 0 0 0 0 0 0 0 0 0 0 0 0 0 0 0 0 0 0 0 0 0 0 0 0 0 0 0 0 0 0 0 0 0 

SCALARS geom_link_id_0 int 1
LOOKUP_TABLE default
0 0 0 0 0 0 0 0 0 0 0 0 0 0 0 0 0 0 0 0 0 0 0 0 0 0 0 0 0 0 0 0 0 0 0 0 0 0 0 0 0 0 0 0 0 

