# vtk DataFile Version 3.0
Generated by GMDS VTK Writer

ASCII
DATASET UNSTRUCTURED_GRID
POINTS 22 float
0 0 0
0 10 0
10 10 0
10 0 0
0 0 10
5 5 0
5 0 0
0 5 0
0 5 10
10 5 0
0 0 5
10 0 5
10 5 5
0 5 5
10 10 5
0 10 5
5 5 5
5 0 5
5 5 10
5 0 10
5 10 0
5 10 5

CELLS 41 123
2 3 11
2 10 4
2 7 5
2 0 10
2 0 7
2 7 1
2 4 8
2 6 3
2 0 6
2 3 9
2 9 2
2 9 12
2 7 13
2 13 8
2 11 12
2 10 13
2 2 14
2 13 16
2 1 15
2 5 9
2 14 12
2 15 13
2 16 12
2 10 17
2 17 11
2 6 5
2 5 16
2 17 16
2 6 17
2 8 18
2 4 19
2 18 16
2 19 18
2 19 17
2 1 20
2 20 2
2 15 21
2 21 14
2 20 5
2 16 21
2 20 21

CELL_TYPES 41
3 
3 
3 
3 
3 
3 
3 
3 
3 
3 
3 
3 
3 
3 
3 
3 
3 
3 
3 
3 
3 
3 
3 
3 
3 
3 
3 
3 
3 
3 
3 
3 
3 
3 
3 
3 
3 
3 
3 
3 
3 
POINT_DATA 22
SCALARS GMDS_ID int 1
LOOKUP_TABLE default
0 1 2 3 4 5 6 8 9 11 12 13 14 15 16 17 18 19 20 21 22 23 
SCALARS geom_link_dim int 1
LOOKUP_TABLE default
1 1 0 1 1 1 2 2 1 1 2 1 1 1 0 1 1 1 1 1 1 1 
SCALARS geom_link_id int 1
LOOKUP_TABLE default
1 3 -1 7 2 12 18 10 6 11 4 10 17 5 -1 4 15 9 14 8 13 16 


CELL_DATA 41
SCALARS GMDS_ID int 1
LOOKUP_TABLE default
1 2 3 4 5 6 7 8 10 11 12 13 15 16 17 18 19 20 21 22 23 24 25 26 27 28 29 30 31 32 34 36 37 38 39 40 41 42 43 44 45 

SCALARS geom_link_dim int 1
LOOKUP_TABLE default
2 2 0 2 2 2 2 2 2 2 0 2 0 2 2 0 0 2 2 2 0 2 2 0 2 0 0 2 0 2 2 2 2 2 2 0 2 0 2 2 2 

SCALARS geom_link_id int 1
LOOKUP_TABLE default
5 4 0 4 10 10 19 18 18 13 0 22 0 8 9 0 0 1 7 23 0 27 20 0 25 0 0 3 0 16 26 12 21 11 24 0 17 0 6 14 15 

