# vtk DataFile Version 3.0
Generated by GMDS VTK Writer

ASCII
DATASET UNSTRUCTURED_GRID
POINTS 24 float
0 10 0
10 10 0
0 0 10
0 10 10
10 10 10
10 0 10
0 5 0
0 5 10
10 5 10
10 5 0
0 0 5
10 0 5
10 5 5
0 5 5
10 10 5
0 10 5
5 5 0
5 5 5
5 0 5
5 5 10
5 0 10
5 10 0
5 10 5
5 10 10

CELLS 46 138
2 11 5
2 10 2
2 13 17
2 6 16
2 6 0
2 2 7
2 7 3
2 5 8
2 8 4
2 9 1
2 17 12
2 16 9
2 9 12
2 12 8
2 6 13
2 13 7
2 11 12
2 10 13
2 1 14
2 14 4
2 0 15
2 15 3
2 14 12
2 15 13
2 10 18
2 18 11
2 16 17
2 18 17
2 7 19
2 19 8
2 2 20
2 20 5
2 19 17
2 20 19
2 20 18
2 0 21
2 21 1
2 15 22
2 22 14
2 21 16
2 17 22
2 21 22
2 3 23
2 23 4
2 23 19
2 23 22

CELL_TYPES 46
3 
3 
3 
3 
3 
3 
3 
3 
3 
3 
3 
3 
3 
3 
3 
3 
3 
3 
3 
3 
3 
3 
3 
3 
3 
3 
3 
3 
3 
3 
3 
3 
3 
3 
3 
3 
3 
3 
3 
3 
3 
3 
3 
3 
3 
3 
POINT_DATA 24
SCALARS GMDS_ID int 1
LOOKUP_TABLE default
1 2 4 5 6 7 8 9 10 11 12 13 14 15 16 17 19 20 21 22 23 24 25 26 
SCALARS geom_link_dim_0 int 1
LOOKUP_TABLE default
0 0 0 0 0 0 0 0 0 0 0 0 0 0 0 0 0 0 0 0 0 0 0 0 
SCALARS geom_link_id_0 int 1
LOOKUP_TABLE default
0 0 0 0 0 0 0 0 0 0 0 0 0 0 0 0 0 0 0 0 0 0 0 0 


CELL_DATA 46
SCALARS GMDS_ID int 1
LOOKUP_TABLE default
0 4 8 11 13 14 15 16 17 19 20 22 24 25 26 27 29 31 32 33 34 35 36 38 39 40 42 43 45 46 47 48 49 50 51 52 53 54 55 56 57 58 59 60 61 62 

SCALARS geom_link_dim_0 int 1
LOOKUP_TABLE default
0 0 0 0 0 0 0 0 0 0 0 0 0 0 0 0 0 0 0 0 0 0 0 0 0 0 0 0 0 0 0 0 0 0 0 0 0 0 0 0 0 0 0 0 0 0 

SCALARS geom_link_id_0 int 1
LOOKUP_TABLE default
0 0 0 0 0 0 0 0 0 0 0 0 0 0 0 0 0 0 0 0 0 0 0 0 0 0 0 0 0 0 0 0 0 0 0 0 0 0 0 0 0 0 0 0 0 0 

