# vtk DataFile Version 3.0
Generated by GMDS VTK Writer

ASCII
DATASET UNSTRUCTURED_GRID
POINTS 16 float
0 0 0
0 10 0
10 10 0
10 0 0
0 0 10
10 0 10
0 5 0
0 5 10
10 5 10
10 5 0
0 0 5
10 0 5
10 5 5
0 5 5
10 10 5
0 10 5

CELLS 28 84
2 11 5
2 1 2
2 3 11
2 3 0
2 10 4
2 0 10
2 5 4
2 0 6
2 6 1
2 4 7
2 5 8
2 3 9
2 9 2
2 7 8
2 6 9
2 9 12
2 12 8
2 6 13
2 13 7
2 10 11
2 11 12
2 13 12
2 10 13
2 2 14
2 1 15
2 14 12
2 15 14
2 15 13

CELL_TYPES 28
3 
3 
3 
3 
3 
3 
3 
3 
3 
3 
3 
3 
3 
3 
3 
3 
3 
3 
3 
3 
3 
3 
3 
3 
3 
3 
3 
3 
POINT_DATA 16
SCALARS GMDS_ID int 1
LOOKUP_TABLE default
0 1 2 3 4 7 8 9 10 11 12 13 14 15 16 17 
SCALARS geom_link_dim int 1
LOOKUP_TABLE default
1 1 0 1 1 0 2 1 0 1 2 1 1 1 0 1 
SCALARS geom_link_id int 1
LOOKUP_TABLE default
1 3 -1 7 2 -1 10 6 -1 11 4 10 17 5 -1 4 


CELL_DATA 28
SCALARS GMDS_ID int 1
LOOKUP_TABLE default
0 1 2 3 4 6 7 8 9 10 12 14 15 16 17 18 19 20 21 22 23 24 25 26 28 30 31 32 

SCALARS geom_link_dim int 1
LOOKUP_TABLE default
0 0 2 2 2 2 0 2 2 2 0 2 0 0 0 2 0 0 2 0 2 0 0 0 2 0 0 2 

SCALARS geom_link_id int 1
LOOKUP_TABLE default
0 0 5 18 4 4 0 10 10 19 0 13 0 0 0 22 0 0 8 0 9 0 0 0 7 0 0 27 

