# vtk DataFile Version 3.0
Generated by GMDS VTK Writer

ASCII
DATASET UNSTRUCTURED_GRID
POINTS 25 float
0 0 0
0 10 0
10 0 0
0 0 10
0 10 10
10 10 10
0 5 0
0 5 10
10 5 10
10 5 0
0 0 5
10 0 5
10 5 5
0 5 5
10 10 5
0 10 5
5 0 0
5 5 0
5 5 5
5 0 5
5 5 10
5 0 10
5 10 0
5 10 5
5 10 10

CELLS 48 144
2 2 11
2 10 3
2 0 10
2 13 18
2 16 2
2 0 16
2 6 17
2 0 6
2 6 1
2 3 7
2 7 4
2 8 5
2 2 9
2 18 12
2 17 9
2 9 12
2 12 8
2 6 13
2 13 7
2 11 12
2 10 13
2 14 5
2 1 15
2 15 4
2 14 12
2 15 13
2 10 19
2 19 11
2 16 17
2 17 18
2 19 18
2 16 19
2 7 20
2 20 8
2 3 21
2 20 18
2 21 20
2 21 19
2 1 22
2 15 23
2 23 14
2 22 17
2 18 23
2 22 23
2 4 24
2 24 5
2 24 20
2 24 23

CELL_TYPES 48
3 
3 
3 
3 
3 
3 
3 
3 
3 
3 
3 
3 
3 
3 
3 
3 
3 
3 
3 
3 
3 
3 
3 
3 
3 
3 
3 
3 
3 
3 
3 
3 
3 
3 
3 
3 
3 
3 
3 
3 
3 
3 
3 
3 
3 
3 
3 
3 
POINT_DATA 25
SCALARS GMDS_ID int 1
LOOKUP_TABLE default
0 1 3 4 5 6 8 9 10 11 12 13 14 15 16 17 18 19 20 21 22 23 24 25 26 
SCALARS geom_link_dim_0 int 1
LOOKUP_TABLE default
0 0 0 0 0 0 0 0 0 0 0 0 0 0 0 0 0 0 0 0 0 0 0 0 0 
SCALARS geom_link_id_0 int 1
LOOKUP_TABLE default
0 0 0 0 0 0 0 0 0 0 0 0 0 0 0 0 0 0 0 0 0 0 0 0 0 


CELL_DATA 48
SCALARS GMDS_ID int 1
LOOKUP_TABLE default
2 4 6 8 9 10 11 12 13 14 15 17 18 20 22 24 25 26 27 29 31 33 34 35 36 38 39 40 41 42 43 44 45 46 47 49 50 51 52 54 55 56 57 58 59 60 61 62 

SCALARS geom_link_dim_0 int 1
LOOKUP_TABLE default
0 0 0 0 0 0 0 0 0 0 0 0 0 0 0 0 0 0 0 0 0 0 0 0 0 0 0 0 0 0 0 0 0 0 0 0 0 0 0 0 0 0 0 0 0 0 0 0 

SCALARS geom_link_id_0 int 1
LOOKUP_TABLE default
0 0 0 0 0 0 0 0 0 0 0 0 0 0 0 0 0 0 0 0 0 0 0 0 0 0 0 0 0 0 0 0 0 0 0 0 0 0 0 0 0 0 0 0 0 0 0 0 

