# vtk DataFile Version 3.0
Generated by GMDS VTK Writer

ASCII
DATASET UNSTRUCTURED_GRID
POINTS 20 float
0 0 0
0 10 0
10 0 0
0 0 10
5 5 0
5 0 0
0 5 0
0 5 10
10 5 0
0 0 5
10 0 5
10 5 5
0 5 5
0 10 5
5 5 5
5 0 5
5 5 10
5 0 10
5 10 0
5 10 5

CELLS 36 108
2 2 10
2 9 3
2 6 4
2 0 9
2 0 6
2 6 1
2 3 7
2 5 2
2 0 5
2 2 8
2 8 11
2 6 12
2 12 7
2 10 11
2 9 12
2 12 14
2 1 13
2 4 8
2 13 12
2 14 11
2 9 15
2 15 10
2 5 4
2 4 14
2 15 14
2 5 15
2 7 16
2 3 17
2 16 14
2 17 16
2 17 15
2 1 18
2 13 19
2 18 4
2 14 19
2 18 19

CELL_TYPES 36
3 
3 
3 
3 
3 
3 
3 
3 
3 
3 
3 
3 
3 
3 
3 
3 
3 
3 
3 
3 
3 
3 
3 
3 
3 
3 
3 
3 
3 
3 
3 
3 
3 
3 
3 
3 
POINT_DATA 20
SCALARS GMDS_ID int 1
LOOKUP_TABLE default
0 1 3 4 5 6 7 8 9 10 11 12 13 15 16 17 18 19 20 21 
SCALARS geom_link_dim int 1
LOOKUP_TABLE default
1 1 1 1 1 2 2 1 1 2 1 1 1 1 1 1 1 1 1 1 
SCALARS geom_link_id int 1
LOOKUP_TABLE default
1 3 7 2 12 18 10 6 11 4 10 17 5 4 15 9 14 8 13 16 


CELL_DATA 36
SCALARS GMDS_ID int 1
LOOKUP_TABLE default
0 1 2 3 4 5 6 7 8 9 11 12 13 14 15 17 18 19 21 22 23 24 25 26 27 28 29 30 31 32 33 34 36 38 39 40 

SCALARS geom_link_dim int 1
LOOKUP_TABLE default
2 2 3 2 2 2 2 2 2 2 2 3 2 2 3 2 2 2 2 2 3 2 3 2 2 3 2 2 2 2 2 2 2 2 2 2 

SCALARS geom_link_id int 1
LOOKUP_TABLE default
5 4 1 4 10 10 19 18 18 13 22 8 8 9 5 1 7 23 27 20 5 25 1 2 3 5 16 26 12 21 11 24 17 6 14 15 

