# vtk DataFile Version 3.0
Generated by GMDS VTK Writer

ASCII
DATASET UNSTRUCTURED_GRID
POINTS 24 float
0 0 0
0 10 0
10 10 0
10 0 0
0 0 10
5 5 0
5 0 0
10 0 10
0 5 0
0 5 10
10 5 10
10 5 0
0 0 5
10 0 5
10 5 5
0 5 5
10 10 5
0 10 5
5 5 5
5 0 5
5 5 10
5 0 10
5 10 0
5 10 5

CELLS 46 138
2 13 7
2 3 13
2 12 4
2 8 5
2 0 12
2 5 18
2 12 19
2 18 14
2 19 13
2 0 8
2 8 1
2 4 9
2 0 6
2 7 10
2 15 18
2 3 11
2 11 2
2 19 18
2 6 5
2 11 14
2 14 10
2 8 15
2 15 9
2 13 14
2 12 15
2 2 16
2 5 11
2 1 17
2 6 3
2 16 14
2 17 15
2 6 19
2 9 20
2 20 10
2 4 21
2 21 7
2 20 18
2 21 20
2 21 19
2 1 22
2 22 2
2 17 23
2 23 16
2 22 5
2 18 23
2 22 23

CELL_TYPES 46
3 
3 
3 
3 
3 
3 
3 
3 
3 
3 
3 
3 
3 
3 
3 
3 
3 
3 
3 
3 
3 
3 
3 
3 
3 
3 
3 
3 
3 
3 
3 
3 
3 
3 
3 
3 
3 
3 
3 
3 
3 
3 
3 
3 
3 
3 
POINT_DATA 24
SCALARS GMDS_ID int 1
LOOKUP_TABLE default
0 1 2 3 4 5 6 7 8 9 10 11 12 13 14 15 16 17 18 19 20 21 22 23 
SCALARS geom_link_dim int 1
LOOKUP_TABLE default
1 1 0 1 1 1 2 0 2 1 0 1 2 1 1 1 0 1 1 1 1 1 1 1 
SCALARS geom_link_id int 1
LOOKUP_TABLE default
1 3 -1 7 2 12 18 -1 10 6 -1 11 4 10 17 5 -1 4 15 9 14 8 13 16 


CELL_DATA 46
SCALARS GMDS_ID int 1
LOOKUP_TABLE default
0 2 4 5 6 8 9 10 11 12 13 14 15 16 17 18 19 20 22 24 25 26 27 29 31 32 33 34 35 36 38 39 40 41 42 43 44 45 46 47 48 49 50 51 52 53 

SCALARS geom_link_dim int 1
LOOKUP_TABLE default
0 2 2 0 2 0 0 2 2 2 2 2 2 0 2 2 0 0 0 2 0 0 2 2 0 0 2 2 2 0 2 0 2 0 2 0 2 2 2 2 0 2 0 2 2 2 

SCALARS geom_link_id int 1
LOOKUP_TABLE default
0 5 4 -1 4 -1 -1 20 25 10 10 19 18 0 1 13 0 -1 -1 22 0 0 8 9 0 0 23 7 18 0 27 -1 16 -1 26 -1 12 21 11 24 -1 17 -1 6 14 15 

