# vtk DataFile Version 3.0
Generated by GMDS VTK Writer

ASCII
DATASET UNSTRUCTURED_GRID
POINTS 22 float
0 0 0
0 10 0
10 10 0
10 0 0
0 0 10
5 5 0
5 0 0
0 5 0
0 5 10
10 5 0
0 0 5
10 0 5
10 5 5
0 5 5
10 10 5
0 10 5
5 5 5
5 0 5
5 5 10
5 0 10
5 10 0
5 10 5

CELLS 25 125
4 3 9 12 11 
4 8 13 16 18 
4 6 5 16 17 
4 6 17 11 3 
4 5 16 12 9 
4 0 10 17 6 
4 17 16 12 11 
4 10 13 16 17 
4 0 7 13 10 
4 10 13 8 4 
4 2 9 12 14 
4 7 13 16 5 
4 6 5 9 3 
4 1 7 13 15 
4 0 7 5 6 
4 4 8 18 19 
4 4 10 17 19 
4 17 16 18 19 
4 1 7 5 20 
4 20 5 9 2 
4 13 15 21 16 
4 16 21 14 12 
4 1 15 21 20 
4 20 21 14 2 
4 20 5 16 21 

CELL_TYPES 25
9 
9 
9 
9 
9 
9 
9 
9 
9 
9 
9 
9 
9 
9 
9 
9 
9 
9 
9 
9 
9 
9 
9 
9 
9 
POINT_DATA 22
SCALARS GMDS_ID int 1
LOOKUP_TABLE default
0 1 2 3 4 5 6 8 9 11 12 13 14 15 16 17 18 19 20 21 22 23 
SCALARS geom_link_dim int 1
LOOKUP_TABLE default
1 1 0 1 1 1 2 2 1 1 2 1 1 1 0 1 1 1 1 1 1 1 
SCALARS geom_link_id int 1
LOOKUP_TABLE default
1 3 -1 7 2 12 18 10 6 11 4 10 17 5 -1 4 15 9 14 8 13 16 


CELL_DATA 25
SCALARS GMDS_ID int 1
LOOKUP_TABLE default
1 4 6 7 9 10 11 14 17 18 20 21 23 24 25 27 29 31 32 33 34 35 36 37 38 

SCALARS geom_link_dim int 1
LOOKUP_TABLE default
0 0 0 0 0 0 0 0 0 0 0 0 0 0 0 0 0 0 0 0 0 0 0 0 0 

SCALARS geom_link_id int 1
LOOKUP_TABLE default
0 0 0 0 0 0 0 0 0 0 0 0 0 0 0 0 0 0 0 0 0 0 0 0 0 

