# vtk DataFile Version 3.0
Generated by GMDS VTK Writer

ASCII
DATASET UNSTRUCTURED_GRID
POINTS 25 float
0 0 0
0 10 0
10 0 0
0 0 10
0 10 10
10 10 10
0 5 0
0 5 10
10 5 10
10 5 0
0 0 5
10 0 5
10 5 5
0 5 5
10 10 5
0 10 5
5 0 0
5 5 0
5 5 5
5 0 5
5 5 10
5 0 10
5 10 0
5 10 5
5 10 10

CELLS 30 150
4 2 9 12 11 
4 0 10 19 16 
4 19 18 12 11 
4 10 13 18 19 
4 17 18 12 9 
4 6 13 18 17 
4 16 17 9 2 
4 0 6 17 16 
4 0 6 13 10 
4 10 13 7 3 
4 14 12 8 5 
4 1 6 13 15 
4 15 13 7 4 
4 16 19 11 2 
4 16 17 18 19 
4 7 13 18 20 
4 20 18 12 8 
4 3 7 20 21 
4 3 10 19 21 
4 19 18 20 21 
4 1 6 17 22 
4 13 15 23 18 
4 18 23 14 12 
4 1 15 23 22 
4 22 17 18 23 
4 4 7 20 24 
4 24 20 8 5 
4 4 15 23 24 
4 24 23 14 5 
4 23 18 20 24 

CELL_TYPES 30
9 
9 
9 
9 
9 
9 
9 
9 
9 
9 
9 
9 
9 
9 
9 
9 
9 
9 
9 
9 
9 
9 
9 
9 
9 
9 
9 
9 
9 
9 
POINT_DATA 25
SCALARS GMDS_ID int 1
LOOKUP_TABLE default
0 1 3 4 5 6 8 9 10 11 12 13 14 15 16 17 18 19 20 21 22 23 24 25 26 
SCALARS geom_link_dim_0 int 1
LOOKUP_TABLE default
0 0 0 0 0 0 0 0 0 0 0 0 0 0 0 0 0 0 0 0 0 0 0 0 0 
SCALARS geom_link_id_0 int 1
LOOKUP_TABLE default
0 0 0 0 0 0 0 0 0 0 0 0 0 0 0 0 0 0 0 0 0 0 0 0 0 


CELL_DATA 30
SCALARS GMDS_ID int 1
LOOKUP_TABLE default
1 2 4 6 7 10 11 14 17 18 21 24 25 27 28 29 30 31 33 35 36 38 39 40 42 43 44 45 46 47 

SCALARS geom_link_dim_0 int 1
LOOKUP_TABLE default
0 0 0 0 0 0 0 0 0 0 0 0 0 0 0 0 0 0 0 0 0 0 0 0 0 0 0 0 0 0 

SCALARS geom_link_id_0 int 1
LOOKUP_TABLE default
0 0 0 0 0 0 0 0 0 0 0 0 0 0 0 0 0 0 0 0 0 0 0 0 0 0 0 0 0 0 

