# vtk DataFile Version 3.0
Generated by GMDS VTK Writer

ASCII
DATASET UNSTRUCTURED_GRID
POINTS 20 float
0 0 0
0 10 0
10 0 0
0 0 10
0 5 0
0 5 10
10 5 0
0 0 5
10 0 5
10 5 5
0 5 5
0 10 5
5 0 0
5 5 0
5 5 5
5 0 5
5 5 10
5 0 10
5 10 0
5 10 5

CELLS 21 105
4 2 6 9 8 
4 0 7 15 12 
4 15 14 9 8 
4 7 10 14 15 
4 13 14 9 6 
4 4 10 14 13 
4 12 13 6 2 
4 0 4 13 12 
4 0 4 10 7 
4 7 10 5 3 
4 1 4 10 11 
4 12 15 8 2 
4 12 13 14 15 
4 5 10 14 16 
4 3 5 16 17 
4 3 7 15 17 
4 15 14 16 17 
4 1 4 13 18 
4 10 11 19 14 
4 1 11 19 18 
4 18 13 14 19 

CELL_TYPES 21
9 
9 
9 
9 
9 
9 
9 
9 
9 
9 
9 
9 
9 
9 
9 
9 
9 
9 
9 
9 
9 
POINT_DATA 20
SCALARS GMDS_ID int 1
LOOKUP_TABLE default
0 1 3 4 8 9 11 12 13 14 15 17 18 19 20 21 22 23 24 25 
SCALARS geom_link_dim int 1
LOOKUP_TABLE default
1 1 1 1 2 1 1 2 1 1 1 1 2 1 1 1 1 1 1 1 
SCALARS geom_link_id int 1
LOOKUP_TABLE default
1 3 7 2 10 6 11 4 10 17 5 4 18 12 15 9 14 8 13 16 


CELL_DATA 21
SCALARS GMDS_ID int 1
LOOKUP_TABLE default
1 2 4 6 7 10 11 14 17 18 24 27 28 29 31 33 35 36 38 40 42 

SCALARS geom_link_dim int 1
LOOKUP_TABLE default
3 3 3 3 3 3 3 3 3 3 3 3 4 3 3 3 3 3 3 3 3 

SCALARS geom_link_id int 1
LOOKUP_TABLE default
10 5 9 8 12 1 1 1 8 8 8 5 1 4 3 5 11 1 7 6 2 

