# vtk DataFile Version 3.0
Generated by GMDS VTK Writer

ASCII
DATASET UNSTRUCTURED_GRID
POINTS 24 float
0 0 0
0 10 0
10 0 0
0 0 10
10 10 10
0 5 0
0 5 10
10 5 10
10 5 0
0 0 5
10 0 5
10 5 5
0 5 5
10 10 5
0 10 5
5 0 0
5 5 0
5 5 5
5 0 5
5 5 10
5 0 10
5 10 0
5 10 5
5 10 10

CELLS 27 135
4 2 8 11 10 
4 0 9 18 15 
4 18 17 11 10 
4 9 12 17 18 
4 16 17 11 8 
4 5 12 17 16 
4 15 16 8 2 
4 0 5 16 15 
4 0 5 12 9 
4 9 12 6 3 
4 13 11 7 4 
4 1 5 12 14 
4 15 18 10 2 
4 15 16 17 18 
4 6 12 17 19 
4 19 17 11 7 
4 3 6 19 20 
4 3 9 18 20 
4 18 17 19 20 
4 1 5 16 21 
4 12 14 22 17 
4 17 22 13 11 
4 1 14 22 21 
4 21 16 17 22 
4 23 19 7 4 
4 23 22 13 4 
4 22 17 19 23 

CELL_TYPES 27
9 
9 
9 
9 
9 
9 
9 
9 
9 
9 
9 
9 
9 
9 
9 
9 
9 
9 
9 
9 
9 
9 
9 
9 
9 
9 
9 
POINT_DATA 24
SCALARS GMDS_ID int 1
LOOKUP_TABLE default
0 1 3 4 6 8 9 10 11 12 13 14 15 16 17 18 19 20 21 22 23 24 25 26 
SCALARS geom_link_dim_0 int 1
LOOKUP_TABLE default
0 0 0 0 0 0 0 0 0 0 0 0 0 0 0 0 0 0 0 0 0 0 0 0 
SCALARS geom_link_id_0 int 1
LOOKUP_TABLE default
0 0 0 0 0 0 0 0 0 0 0 0 0 0 0 0 0 0 0 0 0 0 0 0 


CELL_DATA 27
SCALARS GMDS_ID int 1
LOOKUP_TABLE default
1 2 4 6 7 10 11 14 17 18 21 24 27 28 29 30 31 33 35 36 38 39 40 42 44 46 47 

SCALARS geom_link_dim_0 int 1
LOOKUP_TABLE default
0 0 0 0 0 0 0 0 0 0 0 0 0 0 0 0 0 0 0 0 0 0 0 0 0 0 0 

SCALARS geom_link_id_0 int 1
LOOKUP_TABLE default
0 0 0 0 0 0 0 0 0 0 0 0 0 0 0 0 0 0 0 0 0 0 0 0 0 0 0 

