# vtk DataFile Version 3.0
Generated by GMDS VTK Writer

ASCII
DATASET UNSTRUCTURED_GRID
POINTS 20 float
0 0 0
0 10 0
10 0 0
0 0 10
5 5 0
5 0 0
0 5 0
0 5 10
10 5 0
0 0 5
10 0 5
10 5 5
0 5 5
0 10 5
5 5 5
5 0 5
5 5 10
5 0 10
5 10 0
5 10 5

CELLS 21 105
4 2 8 11 10 
4 7 12 14 16 
4 5 4 14 15 
4 5 15 10 2 
4 4 14 11 8 
4 0 9 15 5 
4 15 14 11 10 
4 9 12 14 15 
4 0 6 12 9 
4 9 12 7 3 
4 6 12 14 4 
4 5 4 8 2 
4 1 6 12 13 
4 0 6 4 5 
4 3 7 16 17 
4 3 9 15 17 
4 15 14 16 17 
4 1 6 4 18 
4 12 13 19 14 
4 1 13 19 18 
4 18 4 14 19 

CELL_TYPES 21
9 
9 
9 
9 
9 
9 
9 
9 
9 
9 
9 
9 
9 
9 
9 
9 
9 
9 
9 
9 
9 
POINT_DATA 20
SCALARS GMDS_ID int 1
LOOKUP_TABLE default
0 1 3 4 5 6 8 9 11 12 13 14 15 17 18 19 20 21 22 23 
SCALARS geom_link_dim int 1
LOOKUP_TABLE default
1 1 1 1 1 2 2 1 1 2 1 1 1 1 1 1 1 1 1 1 
SCALARS geom_link_id int 1
LOOKUP_TABLE default
1 3 7 2 12 18 10 6 11 4 10 17 5 4 15 9 14 8 13 16 


CELL_DATA 21
SCALARS GMDS_ID int 1
LOOKUP_TABLE default
1 4 6 7 9 10 11 14 17 18 21 23 24 25 27 29 31 32 34 36 38 

SCALARS geom_link_dim int 1
LOOKUP_TABLE default
3 3 4 3 3 3 3 4 3 3 4 3 3 3 3 3 3 3 3 3 3 

SCALARS geom_link_id int 1
LOOKUP_TABLE default
10 4 1 5 12 5 9 1 8 8 1 1 8 1 3 5 11 1 7 6 2 

