# vtk DataFile Version 3.0
Generated by GMDS VTK Writer

ASCII
DATASET UNSTRUCTURED_GRID
POINTS 32 float
5 0 0
5 0 -5
10 5 0
-5 5 0
0 5 -5
0 5 0
0 -5 0
0 5 10
0 10 0
-5 0 0
0 0 0
0 0 -5
10 0 0
0 0 10
-5 5 5
0 5 5
0 10 5
10 5 5
0 -5 5
0 0 5
-5 0 5
10 0 5
5 5 0
5 5 -5
5 -5 0
5 5 5
5 10 5
5 10 0
5 5 10
5 0 10
5 0 5
5 -5 5

CELLS 7 63
8 11 10 5 4 1 0 22 23 
8 15 16 8 5 25 26 27 22 
8 20 19 15 14 9 10 5 3 
8 18 19 10 6 31 30 0 24 
8 7 13 19 15 28 29 30 25 
8 15 19 10 5 25 30 0 22 
8 25 30 0 22 17 21 12 2 

CELL_TYPES 7
12 
12 
12 
12 
12 
12 
12 
POINT_DATA 32
SCALARS GMDS_ID int 1
LOOKUP_TABLE default
0 1 14 15 19 20 21 22 25 28 29 30 31 34 37 38 39 40 43 44 45 47 48 49 51 52 53 54 55 59 60 61 
SCALARS geom_link_dim int 1
LOOKUP_TABLE default
1 1 1 1 1 1 1 1 1 1 1 1 1 1 1 1 1 1 1 1 1 1 1 1 1 1 1 1 1 1 1 1 
SCALARS geom_link_id int 1
LOOKUP_TABLE default
26 25 21 5 18 1 28 16 4 11 12 19 29 20 6 2 3 22 27 14 13 30 10 17 31 8 7 9 15 24 23 32 


CELL_DATA 7
SCALARS GMDS_ID int 1
LOOKUP_TABLE default
8 13 19 28 30 32 33 

SCALARS is_in int 1
LOOKUP_TABLE default
1 1 1 1 1 1 1 

SCALARS geom_link_dim int 1
LOOKUP_TABLE default
4 4 4 4 4 4 4 

SCALARS geom_link_id int 1
LOOKUP_TABLE default
1 1 1 1 1 1 1 

