# vtk DataFile Version 3.0
Generated by GMDS VTK Writer

ASCII
DATASET UNSTRUCTURED_GRID
POINTS 62 float
5 0 0
5 0 -5
10 10 -5
10 -5 -5
-5 -5 10
-5 10 10
10 10 10
10 -5 10
-5 5 -5
-5 5 10
10 5 10
10 5 -5
-5 -5 -8.88178419700125e-16
10 -5 -8.88178419700125e-16
10 5 0
-5 5 0
10 10 -8.88178419700125e-16
-5 10 -8.88178419700125e-16
-8.88178419700125e-16 -5 -5
0 5 -5
0 5 0
0 -5 0
0 5 10
-8.88178419700125e-16 -5 10
-8.88178419700125e-16 10 -5
0 10 0
-8.88178419700125e-16 10 10
-5 -4.44089209850063e-16 -5
-5 0 0
0 0 0
0 0 -5
10 0 0
10 -4.44089209850063e-16 -5
-5 -4.44089209850063e-16 10
0 0 10
10 -4.44089209850063e-16 10
-5 10 5
-5 5 5
-4.44089209850063e-16 5 5
0 10 5
10 5 5
10 10 5
-5 -5 5
0 -5 5
-2.22044604925031e-16 0 5
-5 0 5
10 -5 5
10 0 5
5 5 0
5 5 -5
5 -5 -5
5 -5 0
5 5 5
5 10 5
5 10 0
5 5 10
5 10 10
5 10 -5
5 -5 10
5 0 10
5 0 5
5 -5 5

CELLS 25 225
8 27 28 29 30 8 15 20 19 
8 1 0 48 49 32 31 14 11 
8 36 37 38 39 17 15 20 25 
8 5 9 22 26 36 37 38 39 
8 30 29 20 19 1 0 48 49 
8 55 56 53 52 10 6 41 40 
8 22 26 39 38 55 56 53 52 
8 52 53 54 48 40 41 16 14 
8 38 39 25 20 52 53 54 48 
8 50 51 0 1 3 13 31 32 
8 18 21 29 30 50 51 0 1 
8 4 23 34 33 42 43 44 45 
8 42 43 44 45 12 21 29 28 
8 33 34 22 9 45 44 38 37 
8 45 44 38 37 28 29 20 15 
8 24 19 20 25 57 49 48 54 
8 57 49 48 54 2 11 14 16 
8 23 34 44 43 58 59 60 61 
8 58 59 60 61 7 35 47 46 
8 43 44 29 21 61 60 0 51 
8 61 60 0 51 46 47 31 13 
8 22 34 44 38 55 59 60 52 
8 55 59 60 52 10 35 47 40 
8 38 44 29 20 52 60 0 48 
8 52 60 0 48 40 47 31 14 

CELL_TYPES 25
12 
12 
12 
12 
12 
12 
12 
12 
12 
12 
12 
12 
12 
12 
12 
12 
12 
12 
12 
12 
12 
12 
12 
12 
12 
POINT_DATA 62
SCALARS GMDS_ID int 1
LOOKUP_TABLE default
0 1 2 3 4 5 6 7 8 9 10 11 12 13 14 15 16 17 18 19 20 21 22 23 24 25 26 27 28 29 30 31 32 33 34 35 36 37 38 39 40 41 42 43 44 45 46 47 48 49 50 51 52 53 54 55 56 57 58 59 60 61 
SCALARS geom_link_dim int 1
LOOKUP_TABLE default
0 1 0 0 0 0 0 0 0 0 0 0 0 0 1 1 0 0 0 1 1 1 1 0 0 1 0 0 1 1 1 1 0 0 1 0 0 1 0 1 1 0 0 1 0 1 0 1 0 1 0 1 0 1 1 1 0 0 0 1 0 1 
SCALARS geom_link_id int 1
LOOKUP_TABLE default
-1 25 -1 -1 -1 -1 -1 -1 -1 -1 -1 -1 -1 -1 21 5 -1 -1 -1 18 1 28 16 -1 -1 4 -1 -1 11 12 19 29 -1 -1 20 -1 -1 6 0 3 22 -1 -1 27 0 13 -1 30 -1 17 -1 31 -1 7 9 15 -1 -1 -1 24 -1 32 


CELL_DATA 25
SCALARS GMDS_ID int 1
LOOKUP_TABLE default
4 5 6 7 8 10 11 12 13 14 15 16 17 18 19 24 25 26 27 28 29 30 31 32 33 

SCALARS is_in int 1
LOOKUP_TABLE default
0 0 0 0 1 0 0 0 1 0 0 0 0 0 1 0 0 0 0 1 0 1 0 1 1 

SCALARS geom_link_dim int 1
LOOKUP_TABLE default
0 0 0 0 0 0 0 0 0 0 0 0 0 0 0 0 0 0 0 0 0 0 0 0 0 

SCALARS geom_link_id int 1
LOOKUP_TABLE default
0 -1 0 0 -1 -1 -1 -1 -1 -1 -1 0 0 0 0 -1 -1 -1 -1 -1 -1 -1 -1 -1 -1 

