# vtk DataFile Version 3.0
Generated by GMDS VTK Writer

ASCII
DATASET UNSTRUCTURED_GRID
POINTS 51 float
5 0 0
5 0 -5
10 10 -5
-5 -5 10
10 -5 10
-5 5 10
10 5 10
10 5 -5
-5 -5 -8.88178419700125e-16
10 5 0
-5 5 0
10 10 -8.88178419700125e-16
-8.88178419700125e-16 -5 -5
0 5 -5
0 5 0
0 -5 0
0 5 10
-8.88178419700125e-16 -5 10
-8.88178419700125e-16 10 -5
0 10 0
-5 0 0
0 0 0
0 0 -5
10 0 0
-5 -4.44089209850063e-16 10
0 0 10
10 -4.44089209850063e-16 10
-5 5 5
0 5 5
0 10 5
10 5 5
10 10 5
-5 -5 5
0 -5 5
-2.22044604925031e-16 0 5
-5 0 5
10 -5 5
10 0 5
5 5 0
5 5 -5
5 -5 -5
5 -5 0
5 5 5
5 10 5
5 10 0
5 5 10
5 10 -5
5 -5 10
5 0 10
5 0 5
5 -5 5

CELLS 17 153
8 22 21 14 13 1 0 38 39 
8 42 43 44 38 30 31 11 9 
8 28 29 19 14 42 43 44 38 
8 12 15 21 22 40 41 0 1 
8 3 17 25 24 32 33 34 35 
8 32 33 34 35 8 15 21 20 
8 24 25 16 5 35 34 28 27 
8 35 34 28 27 20 21 14 10 
8 18 13 14 19 46 39 38 44 
8 46 39 38 44 2 7 9 11 
8 17 25 34 33 47 48 49 50 
8 47 48 49 50 4 26 37 36 
8 33 34 21 15 50 49 0 41 
8 16 25 34 28 45 48 49 42 
8 45 48 49 42 6 26 37 30 
8 28 34 21 14 42 49 0 38 
8 42 49 0 38 30 37 23 9 

CELL_TYPES 17
12 
12 
12 
12 
12 
12 
12 
12 
12 
12 
12 
12 
12 
12 
12 
12 
12 
POINT_DATA 51
SCALARS GMDS_ID int 1
LOOKUP_TABLE default
0 1 2 4 7 9 10 11 12 14 15 16 18 19 20 21 22 23 24 25 28 29 30 31 33 34 35 37 38 39 40 41 42 43 44 45 46 47 48 49 50 51 52 53 54 55 57 58 59 60 61 
SCALARS geom_link_dim int 1
LOOKUP_TABLE default
1 1 0 0 0 0 0 0 0 1 1 0 0 1 1 1 1 0 0 1 1 1 1 1 0 1 0 1 1 1 1 0 0 1 0 1 0 1 1 1 0 1 1 1 1 1 0 0 1 1 1 
SCALARS geom_link_id int 1
LOOKUP_TABLE default
26 25 -1 -1 -1 -1 -1 -1 -1 21 5 -1 -1 18 1 28 16 -1 -1 4 11 12 19 29 -1 20 -1 6 2 3 22 -1 -1 27 0 13 -1 30 10 17 -1 31 8 7 9 15 -1 -1 24 23 32 


CELL_DATA 17
SCALARS GMDS_ID int 1
LOOKUP_TABLE default
8 12 13 15 16 17 18 19 24 25 26 27 28 30 31 32 33 

SCALARS is_in int 1
LOOKUP_TABLE default
1 0 1 0 0 0 0 1 0 0 0 0 1 1 0 1 1 

SCALARS geom_link_dim int 1
LOOKUP_TABLE default
0 0 0 0 0 0 0 0 0 0 0 0 0 0 0 0 0 

SCALARS geom_link_id int 1
LOOKUP_TABLE default
0 0 0 0 0 0 0 0 0 0 0 0 0 0 0 0 0 

