# vtk DataFile Version 3.0
Generated by GMDS VTK Writer

ASCII
DATASET UNSTRUCTURED_GRID
POINTS 60 float
5 0 0
5 0 -5
10 10 -5
10 -5 -5
-5 -5 10
-5 10 10
10 10 10
10 -5 10
-5 5 10
10 5 10
10 5 -5
-5 -5 -8.88178419700125e-16
10 -5 -8.88178419700125e-16
10 5 0
-5 5 0
10 10 -8.88178419700125e-16
-5 10 -8.88178419700125e-16
-8.88178419700125e-16 -5 -5
0 5 -5
0 5 0
0 -5 0
0 5 10
-8.88178419700125e-16 -5 10
-8.88178419700125e-16 10 -5
0 10 0
-8.88178419700125e-16 10 10
-5 0 0
0 0 0
0 0 -5
10 0 0
10 -4.44089209850063e-16 -5
-5 -4.44089209850063e-16 10
0 0 10
10 -4.44089209850063e-16 10
-5 10 5
-5 5 5
-4.44089209850063e-16 5 5
0 10 5
10 5 5
10 10 5
-5 -5 5
0 -5 5
-2.22044604925031e-16 0 5
-5 0 5
10 -5 5
10 0 5
5 5 0
5 5 -5
5 -5 -5
5 -5 0
5 5 5
5 10 5
5 10 0
5 5 10
5 10 10
5 10 -5
5 -5 10
5 0 10
5 0 5
5 -5 5

CELLS 24 216
8 1 0 46 47 30 29 13 10 
8 34 35 36 37 16 14 19 24 
8 5 8 21 25 34 35 36 37 
8 28 27 19 18 1 0 46 47 
8 53 54 51 50 9 6 39 38 
8 21 25 37 36 53 54 51 50 
8 50 51 52 46 38 39 15 13 
8 36 37 24 19 50 51 52 46 
8 48 49 0 1 3 12 29 30 
8 17 20 27 28 48 49 0 1 
8 4 22 32 31 40 41 42 43 
8 40 41 42 43 11 20 27 26 
8 31 32 21 8 43 42 36 35 
8 43 42 36 35 26 27 19 14 
8 23 18 19 24 55 47 46 52 
8 55 47 46 52 2 10 13 15 
8 22 32 42 41 56 57 58 59 
8 56 57 58 59 7 33 45 44 
8 41 42 27 20 59 58 0 49 
8 59 58 0 49 44 45 29 12 
8 21 32 42 36 53 57 58 50 
8 53 57 58 50 9 33 45 38 
8 36 42 27 19 50 58 0 46 
8 50 58 0 46 38 45 29 13 

CELL_TYPES 24
12 
12 
12 
12 
12 
12 
12 
12 
12 
12 
12 
12 
12 
12 
12 
12 
12 
12 
12 
12 
12 
12 
12 
12 
POINT_DATA 60
SCALARS GMDS_ID int 1
LOOKUP_TABLE default
0 1 2 3 4 5 6 7 9 10 11 12 13 14 15 16 17 18 19 20 21 22 23 24 25 26 28 29 30 31 32 33 34 35 36 37 38 39 40 41 42 43 44 45 46 47 48 49 50 51 52 53 54 55 56 57 58 59 60 61 
SCALARS geom_link_dim int 1
LOOKUP_TABLE default
0 1 0 0 0 0 0 0 0 0 0 0 0 1 1 0 0 0 1 1 1 1 0 0 1 0 1 1 1 1 0 0 1 0 0 1 0 1 1 0 0 1 0 1 0 1 0 1 0 1 0 1 1 1 0 0 0 1 0 1 
SCALARS geom_link_id int 1
LOOKUP_TABLE default
0 25 -1 -1 -1 -1 -1 -1 -1 -1 -1 -1 -1 21 5 -1 -1 -1 18 1 28 16 -1 -1 4 -1 11 12 19 29 -1 -1 20 -1 -1 6 0 3 22 -1 -1 27 0 13 -1 30 0 17 -1 31 0 7 9 15 -1 -1 -1 24 0 32 


CELL_DATA 24
SCALARS GMDS_ID int 1
LOOKUP_TABLE default
5 6 7 8 10 11 12 13 14 15 16 17 18 19 24 25 26 27 28 29 30 31 32 33 

SCALARS is_in int 1
LOOKUP_TABLE default
0 0 0 1 0 0 0 1 0 0 0 0 0 1 0 0 0 0 1 0 1 0 1 1 

SCALARS geom_link_dim int 1
LOOKUP_TABLE default
0 0 0 0 0 0 0 0 0 0 0 0 0 0 0 0 0 0 0 0 0 0 0 0 

SCALARS geom_link_id int 1
LOOKUP_TABLE default
0 0 0 0 0 0 0 0 0 0 0 0 0 0 0 0 0 0 0 0 0 0 0 0 

