# vtk DataFile Version 3.0
Generated by GMDS VTK Writer

ASCII
DATASET UNSTRUCTURED_GRID
POINTS 336 float
0 0 0
0 10 0
10 10 0
10 0 0
0 0 10
0 10 10
10 10 10
10 0 10
0 1 0
0 1 10
10 1 10
10 1 0
0 0 4
10 0 4
10 1 4
0 1 4
10 10 4
0 10 4
0 3 0
10 3 0
10 3 4
0 3 4
10 3 10
0 3 10
0 0 5
10 0 5
10 1 5
0 1 5
0 10 5
10 10 5
10 3 5
0 3 5
0 4 0
10 4 0
10 4 4
0 4 4
0 4 10
10 4 10
10 4 5
0 4 5
0 8 0
10 8 0
10 8 4
0 8 4
0 8 10
10 8 10
10 8 5
0 8 5
0 10 7
10 10 7
10 8 7
0 8 7
0 0 7
10 0 7
10 1 7
0 1 7
0 3 7
10 3 7
0 4 7
10 4 7
0 10 9
10 10 9
10 8 9
0 8 9
0 0 9
10 0 9
10 1 9
0 1 9
0 3 9
10 3 9
0 4 9
10 4 9
1 0 0
1 1 0
1 1 4
1 0 4
1 3 0
1 3 4
1 0 5
1 1 5
1 0 9
1 1 9
1 1 7
1 0 7
1 4 0
1 4 4
1 0 10
1 1 10
1 8 0
1 8 4
1 10 0
1 10 4
1 3 5
1 10 7
1 8 7
1 8 5
1 10 5
1 4 5
1 10 9
1 8 9
1 10 10
1 8 10
1 3 7
1 4 7
1 3 10
1 3 9
1 4 10
1 4 9
3 0 0
3 1 0
3 1 4
3 0 4
3 3 0
3 3 4
3 0 5
3 1 5
3 0 9
3 1 9
3 1 7
3 0 7
3 4 0
3 4 4
3 0 10
3 1 10
3 8 0
3 8 4
3 10 0
3 10 4
3 3 5
3 10 7
3 8 7
3 8 5
3 10 5
3 4 5
3 10 9
3 8 9
3 10 10
3 8 10
3 3 7
3 4 7
3 3 10
3 3 9
3 4 10
3 4 9
5 0 0
5 1 0
5 1 4
5 0 4
5 3 0
5 3 4
5 0 5
5 1 5
5 0 9
5 1 9
5 1 7
5 0 7
5 4 0
5 4 4
5 0 10
5 1 10
5 8 0
5 8 4
5 10 0
5 10 4
5 3 5
5 10 7
5 8 7
5 8 5
5 10 5
5 4 5
5 10 9
5 8 9
5 10 10
5 8 10
5 3 7
5 4 7
5 3 10
5 3 9
5 4 10
5 4 9
3 5 0
3 5 4
1 5 4
1 5 0
0 5 4
0 5 0
5 5 0
5 5 4
10 5 0
10 5 4
1 5 5
0 5 5
1 5 7
0 5 7
1 5 10
1 5 9
0 5 9
0 5 10
3 5 5
3 5 7
3 5 10
3 5 9
10 5 5
5 5 5
10 5 7
5 5 7
10 5 10
10 5 9
5 5 9
5 5 10
1 6 7
1 6 9
0 6 9
0 6 7
1 6 10
0 6 10
1 6 5
0 6 5
1 6 4
0 6 4
10 6 0
10 6 4
5 6 4
5 6 0
3 6 4
3 6 0
1 6 0
0 6 0
3 6 5
3 6 7
3 6 10
3 6 9
10 6 5
5 6 5
10 6 7
5 6 7
10 6 10
10 6 9
5 6 9
5 6 10
7 0 0
7 1 0
7 1 4
7 0 4
7 3 0
7 3 4
7 0 5
7 1 5
7 0 9
7 1 9
7 1 7
7 0 7
7 4 0
7 4 4
7 0 10
7 1 10
7 10 0
7 10 4
7 8 4
7 8 0
7 3 5
7 10 7
7 8 7
7 8 5
7 10 5
7 4 5
7 10 9
7 8 9
7 10 10
7 8 10
7 3 7
7 4 7
7 3 10
7 3 9
7 4 10
7 4 9
7 6 0
7 6 4
7 5 0
7 5 4
7 5 5
7 5 7
7 5 9
7 5 10
7 6 5
7 6 7
7 6 9
7 6 10
3 10 3
3 8 3
1 8 3
1 10 3
1 1 3
1 3 3
0 3 3
0 1 3
3 3 3
3 4 3
1 4 3
3 6 3
5 6 3
5 8 3
5 10 3
3 5 3
5 5 3
3 1 3
1 0 3
0 0 3
3 0 3
0 4 3
5 3 3
5 4 3
0 8 3
0 10 3
5 1 3
5 0 3
7 3 3
7 4 3
10 3 3
10 4 3
1 5 3
0 5 3
7 1 3
10 1 3
7 0 3
10 0 3
0 6 3
1 6 3
10 10 3
10 8 3
7 8 3
7 10 3
10 6 3
7 6 3
10 5 3
7 5 3

CELLS 210 1890
8 106 107 70 36 194 195 196 197 
8 134 135 130 129 98 99 94 93 
8 114 115 110 111 78 79 74 75 
8 34 38 30 20 253 265 260 245 
8 121 133 128 113 85 97 92 77 
8 103 107 70 58 192 195 196 193 
8 253 265 260 245 157 169 164 149 
8 115 128 113 110 79 92 77 74 
8 129 130 131 132 93 94 95 96 
8 121 133 97 85 181 198 190 182 
8 228 229 210 216 131 130 94 95 
8 145 148 112 109 314 310 296 305 
8 254 255 249 248 158 159 153 152 
8 133 139 103 97 198 199 192 190 
8 122 123 117 116 86 87 81 80 
8 7 10 66 65 254 255 249 248 
8 170 171 166 165 134 135 130 129 
8 142 143 107 106 200 201 195 194 
8 116 117 118 119 80 81 82 83 
8 291 290 312 313 91 89 43 17 
8 139 143 107 103 199 201 195 192 
8 303 304 300 299 181 187 222 224 
8 78 79 74 75 24 27 15 12 
8 157 169 164 149 121 133 128 113 
8 80 81 82 83 64 67 55 52 
8 314 310 296 305 146 149 113 110 
8 165 166 167 168 129 130 131 132 
8 86 87 81 80 4 9 67 64 
8 144 145 109 108 315 314 305 308 
8 198 199 192 190 228 229 210 216 
8 151 164 149 146 115 128 113 110 
8 315 314 305 308 147 146 110 111 
8 79 92 77 74 27 31 21 15 
8 93 94 95 96 48 51 47 28 
8 244 252 156 148 316 317 311 310 
8 85 97 92 77 35 39 31 21 
8 224 228 216 218 125 131 95 89 
8 98 99 94 93 60 63 51 48 
8 181 198 190 182 224 228 216 218 
8 100 101 99 98 5 44 63 60 
8 158 159 153 152 122 123 117 116 
8 91 96 95 89 17 28 47 43 
8 316 317 311 310 245 253 157 149 
8 83 82 79 78 52 55 27 24 
8 19 33 252 244 318 319 317 316 
8 82 102 92 79 55 56 31 27 
8 152 153 154 155 116 117 118 119 
8 102 103 97 92 56 58 39 31 
8 318 319 317 316 20 34 253 245 
8 150 151 146 147 114 115 110 111 
8 87 104 105 81 9 23 68 67 
8 120 156 186 180 297 311 304 303 
8 81 105 102 82 67 68 56 55 
8 104 106 107 105 23 36 70 68 
8 297 311 304 303 121 157 187 181 
8 105 107 103 102 68 70 58 56 
8 32 84 183 185 309 298 320 321 
8 136 137 135 134 100 101 99 98 
8 261 262 263 264 165 166 167 168 
8 127 132 131 125 91 96 95 89 
8 97 103 58 39 190 192 193 191 
8 49 50 46 29 261 262 263 264 
8 119 118 115 114 83 82 79 78 
8 85 97 39 35 182 190 191 184 
8 118 138 128 115 82 102 92 79 
8 247 260 245 242 151 164 149 146 
8 138 139 133 128 102 103 97 92 
8 109 112 76 73 305 296 293 292 
8 26 30 20 14 247 260 245 242 
8 123 140 141 117 87 104 105 81 
8 117 141 138 118 81 105 102 82 
8 140 142 143 141 104 106 107 105 
8 141 143 139 138 105 107 103 102 
8 72 73 8 0 306 292 295 307 
8 305 296 293 292 110 113 77 74 
8 172 173 171 170 136 137 135 134 
8 90 88 40 1 291 290 312 313 
8 163 168 167 161 127 132 131 125 
8 218 216 217 219 89 95 47 43 
8 182 190 191 184 218 216 217 219 
8 310 311 297 296 149 157 121 113 
8 155 154 151 150 119 118 115 114 
8 148 156 120 112 310 311 297 296 
8 154 174 164 151 118 138 128 115 
8 293 298 309 294 77 85 35 21 
8 174 175 169 164 138 139 133 128 
8 216 210 213 217 95 94 51 47 
8 190 192 193 191 216 210 213 217 
8 76 84 32 18 293 298 309 294 
8 159 176 177 153 123 140 141 117 
8 308 305 292 306 111 110 74 75 
8 153 177 174 154 117 141 138 118 
8 108 109 73 72 308 305 292 306 
8 176 178 179 177 140 142 143 141 
8 306 292 295 307 75 74 15 12 
8 177 179 175 174 141 143 139 138 
8 214 211 212 215 101 99 63 44 
8 194 195 196 197 214 211 212 215 
8 210 211 212 213 94 99 63 51 
8 192 195 196 193 210 211 212 213 
8 248 249 250 251 152 153 154 155 
8 157 169 133 121 187 203 198 181 
8 65 66 54 53 248 249 250 251 
8 180 186 223 225 303 304 300 299 
8 246 247 242 243 150 151 146 147 
8 169 175 139 133 203 205 199 198 
8 25 26 14 13 246 247 242 243 
8 302 301 289 288 163 161 125 127 
8 178 179 143 142 209 208 201 200 
8 162 160 124 126 302 301 289 288 
8 175 179 143 139 205 208 201 199 
8 200 201 195 194 230 231 211 214 
8 230 231 211 214 137 135 99 101 
8 199 201 195 192 229 231 211 210 
8 229 231 211 210 130 135 99 94 
8 299 300 301 289 224 222 161 125 
8 225 223 160 124 299 300 301 289 
8 187 203 198 181 222 233 228 224 
8 222 233 228 224 161 167 131 125 
8 296 297 298 293 113 121 85 77 
8 112 120 84 76 296 297 298 293 
8 203 205 199 198 233 235 229 228 
8 233 235 229 228 167 166 130 131 
8 292 293 294 295 74 77 21 15 
8 73 76 18 8 292 293 294 295 
8 209 208 201 200 239 238 231 230 
8 239 238 231 230 173 171 135 137 
8 288 289 290 291 127 125 89 91 
8 126 124 88 90 288 289 290 291 
8 205 208 201 199 235 238 231 229 
8 235 238 231 229 166 171 135 130 
8 61 62 50 49 266 267 262 261 
8 266 267 262 261 170 171 166 165 
8 6 45 62 61 268 269 267 266 
8 268 269 267 266 172 173 171 170 
8 16 29 46 42 257 264 263 258 
8 257 264 263 258 163 168 167 161 
8 53 54 26 25 251 250 247 246 
8 251 250 247 246 155 154 151 150 
8 54 57 30 26 250 270 260 247 
8 250 270 260 247 154 174 164 151 
8 57 59 38 30 270 271 265 260 
8 270 271 265 260 174 175 169 164 
8 10 22 69 66 255 272 273 249 
8 255 272 273 249 159 176 177 153 
8 66 69 57 54 249 273 270 250 
8 249 273 270 250 153 177 174 154 
8 22 37 71 69 272 274 275 273 
8 272 274 275 273 176 178 179 177 
8 69 71 59 57 273 275 271 270 
8 273 275 271 270 177 179 175 174 
8 34 38 202 189 253 265 280 279 
8 253 265 280 279 157 169 203 187 
8 38 59 204 202 265 271 281 280 
8 265 271 281 280 169 175 205 203 
8 37 71 207 206 274 275 282 283 
8 274 275 282 283 178 179 208 209 
8 59 71 207 204 271 275 282 281 
8 271 275 282 281 175 179 208 205 
8 189 202 232 221 279 280 284 277 
8 279 280 284 277 187 203 233 222 
8 221 232 46 42 277 284 263 258 
8 277 284 263 258 222 233 167 161 
8 202 204 234 232 280 281 285 284 
8 280 281 285 284 203 205 235 233 
8 232 234 50 46 284 285 262 263 
8 284 285 262 263 233 235 166 167 
8 206 207 237 236 283 282 286 287 
8 283 282 286 287 209 208 238 239 
8 236 237 62 45 287 286 267 269 
8 287 286 267 269 239 238 171 173 
8 204 207 237 234 281 282 286 285 
8 281 282 286 285 205 208 238 235 
8 234 237 62 50 285 286 267 262 
8 285 286 267 262 235 238 171 166 
8 309 298 320 321 35 85 182 184 
8 84 120 180 183 298 297 303 320 
8 298 297 303 320 85 121 181 182 
8 241 244 148 145 322 316 310 314 
8 322 316 310 314 242 245 149 146 
8 11 19 244 241 323 318 316 322 
8 323 318 316 322 14 20 245 242 
8 240 241 145 144 324 322 314 315 
8 324 322 314 315 243 242 146 147 
8 3 11 241 240 325 323 322 324 
8 325 323 322 324 13 14 242 243 
8 183 185 227 226 320 321 326 327 
8 320 321 326 327 182 184 219 218 
8 226 227 40 88 327 326 312 290 
8 327 326 312 290 218 219 43 89 
8 180 183 226 225 303 320 327 299 
8 303 320 327 299 181 182 218 224 
8 225 226 88 124 299 327 290 289 
8 299 327 290 289 224 218 89 125 
8 2 41 259 256 328 329 330 331 
8 328 329 330 331 16 42 258 257 
8 256 259 160 162 331 330 301 302 
8 331 330 301 302 257 258 161 163 
8 41 220 276 259 329 332 333 330 
8 329 332 333 330 42 221 277 258 
8 259 276 223 160 330 333 300 301 
8 330 333 300 301 258 277 222 161 
8 188 220 276 278 334 332 333 335 
8 334 332 333 335 189 221 277 279 
8 278 276 223 186 335 333 300 304 
8 335 333 300 304 279 277 222 187 
8 33 188 278 252 319 334 335 317 
8 319 334 335 317 34 189 279 253 
8 252 278 186 156 317 335 304 311 
8 317 335 304 311 253 279 187 157 

CELL_TYPES 210
12 
12 
12 
12 
12 
12 
12 
12 
12 
12 
12 
12 
12 
12 
12 
12 
12 
12 
12 
12 
12 
12 
12 
12 
12 
12 
12 
12 
12 
12 
12 
12 
12 
12 
12 
12 
12 
12 
12 
12 
12 
12 
12 
12 
12 
12 
12 
12 
12 
12 
12 
12 
12 
12 
12 
12 
12 
12 
12 
12 
12 
12 
12 
12 
12 
12 
12 
12 
12 
12 
12 
12 
12 
12 
12 
12 
12 
12 
12 
12 
12 
12 
12 
12 
12 
12 
12 
12 
12 
12 
12 
12 
12 
12 
12 
12 
12 
12 
12 
12 
12 
12 
12 
12 
12 
12 
12 
12 
12 
12 
12 
12 
12 
12 
12 
12 
12 
12 
12 
12 
12 
12 
12 
12 
12 
12 
12 
12 
12 
12 
12 
12 
12 
12 
12 
12 
12 
12 
12 
12 
12 
12 
12 
12 
12 
12 
12 
12 
12 
12 
12 
12 
12 
12 
12 
12 
12 
12 
12 
12 
12 
12 
12 
12 
12 
12 
12 
12 
12 
12 
12 
12 
12 
12 
12 
12 
12 
12 
12 
12 
12 
12 
12 
12 
12 
12 
12 
12 
12 
12 
12 
12 
12 
12 
12 
12 
12 
12 
12 
12 
12 
12 
12 
12 
12 
12 
12 
12 
12 
12 
POINT_DATA 336
SCALARS GMDS_ID int 1
LOOKUP_TABLE default
0 1 2 3 4 5 6 7 8 9 10 11 12 13 14 15 16 17 18 19 20 21 22 23 24 25 26 27 28 29 30 31 32 33 34 35 36 37 38 39 40 41 42 43 44 45 46 47 48 49 50 51 52 53 54 55 56 57 58 59 60 61 62 63 64 65 66 67 68 69 70 71 72 73 74 75 76 77 78 79 80 81 82 83 84 85 86 87 88 89 90 91 92 93 94 95 96 97 98 99 100 101 102 103 104 105 106 107 108 109 110 111 112 113 114 115 116 117 118 119 120 121 122 123 124 125 126 127 128 129 130 131 132 133 134 135 136 137 138 139 140 141 142 143 144 145 146 147 148 149 150 151 152 153 154 155 156 157 158 159 160 161 162 163 164 165 166 167 168 169 170 171 172 173 174 175 176 177 178 179 180 181 182 183 184 185 186 187 188 189 190 191 192 193 194 195 196 197 198 199 200 201 202 203 204 205 206 207 208 209 210 211 212 213 214 215 216 217 218 219 220 221 222 223 224 225 226 227 228 229 230 231 232 233 234 235 236 237 238 239 240 241 242 243 244 245 246 247 248 249 250 251 252 253 254 255 256 257 258 259 260 261 262 263 264 265 266 267 268 269 270 271 272 273 274 275 276 277 278 279 280 281 282 283 284 285 286 287 288 289 290 291 292 293 294 295 296 297 298 299 300 301 302 303 304 305 306 307 308 309 310 311 312 313 314 315 316 317 318 319 320 321 322 323 324 325 326 327 328 329 330 331 332 333 334 335 
SCALARS geom_link_dim int 1
LOOKUP_TABLE default
0 1 0 1 0 1 1 1 1 1 2 2 0 2 3 2 2 2 2 2 1 1 2 2 0 2 3 2 2 2 1 1 2 2 1 1 2 2 1 1 2 1 3 3 2 2 3 3 1 2 3 1 0 2 3 2 3 3 3 3 1 2 3 1 0 2 3 2 3 3 3 3 1 1 0 2 3 0 2 0 2 0 0 2 3 0 1 1 3 0 2 3 0 2 0 0 3 0 2 0 2 3 0 0 3 0 3 0 2 3 0 3 3 0 3 0 3 0 0 3 3 0 2 3 3 0 2 3 0 1 0 0 3 0 1 0 2 3 0 0 3 0 3 0 2 3 0 3 3 0 3 0 3 0 0 3 3 0 2 3 3 0 2 3 0 3 0 0 3 0 3 0 2 3 0 0 3 0 3 0 3 0 0 3 3 2 1 0 2 3 0 3 0 3 3 0 3 2 0 0 3 0 3 0 3 0 2 3 0 1 0 0 3 3 3 2 0 3 0 3 2 3 0 1 0 3 3 2 0 0 3 0 3 0 3 0 2 3 0 1 2 3 0 3 3 0 3 0 3 0 0 3 3 0 2 3 2 3 0 3 0 3 0 0 3 0 3 0 2 3 0 0 3 0 3 0 1 0 1 0 0 0 0 1 0 0 0 1 3 0 0 3 0 0 3 2 0 0 0 0 0 0 3 0 0 0 2 0 3 3 0 0 3 2 0 3 0 0 3 3 0 3 0 3 3 2 3 0 1 1 0 3 3 0 3 0 
SCALARS geom_link_id int 1
LOOKUP_TABLE default
-1 7 -1 30 -1 2 14 16 8 1 34 30 -1 27 2 17 29 24 23 30 37 10 34 28 -1 27 2 17 24 29 38 9 23 30 40 12 28 34 39 11 23 29 2 5 28 34 2 5 6 29 2 5 -1 27 2 17 5 2 5 2 3 29 2 4 -1 27 2 17 5 2 5 2 31 32 0 15 3 0 15 0 15 0 0 15 3 0 15 13 3 0 22 1 0 31 0 0 1 0 21 0 19 4 0 0 4 0 4 0 26 3 0 14 3 0 14 0 14 0 0 14 3 0 25 4 3 0 22 1 0 25 0 0 1 0 24 0 19 4 0 0 4 0 4 0 26 3 0 14 3 0 14 0 14 0 0 14 3 0 25 4 3 0 22 1 0 1 0 0 1 0 1 0 19 4 0 0 4 0 4 0 3 0 0 3 5 23 34 0 30 2 0 5 0 5 4 0 5 28 0 0 4 0 2 0 2 0 34 2 0 18 0 0 5 5 4 28 0 5 0 5 30 2 0 33 0 3 3 23 0 0 4 0 2 0 2 0 34 2 0 17 26 3 0 14 3 0 14 0 14 0 0 14 3 0 25 4 22 1 0 3 0 1 0 0 1 0 1 0 19 4 0 0 4 0 4 0 36 0 35 0 0 0 0 19 0 0 0 20 1 -1 -1 1 -1 -1 5 17 -1 -1 -1 -1 -1 -1 1 -1 -1 -1 15 -1 14 5 -1 -1 5 24 -1 14 -1 -1 2 2 -1 5 -1 2 14 27 5 -1 23 41 -1 1 2 -1 2 -1 


CELL_DATA 210
SCALARS GMDS_ID int 1
LOOKUP_TABLE default
0 1 2 4 5 6 8 9 10 11 12 13 14 15 16 17 19 20 22 23 25 29 30 31 32 33 35 36 37 38 39 41 42 44 45 46 47 48 49 50 51 52 53 56 57 58 59 60 61 63 64 65 66 68 69 70 73 75 76 77 78 80 81 82 83 84 85 86 88 89 91 93 95 97 99 100 101 102 103 104 105 106 107 108 109 110 111 112 113 114 115 116 117 118 119 120 121 122 123 124 125 126 127 128 129 130 131 132 134 136 138 140 141 142 143 144 145 146 147 148 149 150 151 152 153 154 155 156 157 158 159 160 161 162 163 164 165 166 167 168 169 170 171 172 173 174 175 176 177 178 179 186 187 188 189 190 191 192 193 194 195 196 197 198 199 200 201 202 203 204 205 206 207 208 209 210 211 212 213 214 215 216 217 218 219 220 221 222 223 224 225 226 227 228 229 230 231 232 233 234 235 236 237 238 239 240 241 242 243 244 

SCALARS is_in int 1
LOOKUP_TABLE default
1 0 1 0 0 1 0 1 1 1 1 1 1 1 1 1 1 1 1 1 1 1 0 0 0 1 1 0 1 1 1 1 1 1 1 0 1 0 1 1 1 1 1 0 1 1 1 1 1 1 1 1 1 1 1 1 1 1 1 1 1 1 1 1 1 1 1 1 1 1 1 1 1 0 1 1 1 1 1 1 1 1 1 1 1 1 1 1 1 1 1 1 1 1 0 1 1 1 1 1 1 1 1 1 1 1 1 1 1 1 1 1 1 1 1 1 1 1 1 1 1 1 1 1 1 1 1 1 1 1 1 1 1 1 1 1 1 1 1 1 1 1 1 1 1 1 1 1 1 1 1 1 1 1 1 1 1 1 1 1 0 1 1 1 0 1 1 1 0 1 1 1 0 1 1 1 1 1 1 1 1 1 1 1 1 1 1 1 1 1 1 1 1 1 0 1 1 1 1 1 1 1 1 1 0 0 1 1 1 1 

SCALARS geom_link_dim int 1
LOOKUP_TABLE default
0 0 0 0 0 0 0 0 0 0 0 0 0 0 0 0 0 0 0 0 0 0 0 0 0 0 0 0 0 0 0 0 0 0 0 0 0 0 0 0 0 0 0 0 0 0 0 0 0 0 0 0 0 0 0 0 0 0 0 0 0 0 0 0 0 0 0 0 0 0 0 0 0 0 0 0 0 0 0 0 0 0 0 0 0 0 0 0 0 0 0 0 0 0 0 0 0 0 0 0 0 0 0 0 0 0 0 0 0 0 0 0 0 0 0 0 0 0 0 0 0 0 0 0 0 0 0 0 0 0 0 0 0 0 0 0 0 0 0 0 0 0 0 0 0 0 0 0 0 0 0 0 0 0 0 0 0 0 0 0 0 0 0 0 0 0 0 0 0 0 0 0 0 0 0 0 0 0 0 0 0 0 0 0 0 0 0 0 0 0 0 0 0 0 0 0 0 0 0 0 0 0 0 0 0 0 0 0 0 0 

SCALARS geom_link_id int 1
LOOKUP_TABLE default
0 0 0 0 0 0 0 0 0 0 0 -1 0 0 0 0 0 0 0 -1 0 -1 0 0 0 -1 0 0 -1 0 0 -1 0 0 -1 0 0 0 0 0 0 0 -1 0 -1 0 0 0 -1 0 0 -1 0 0 -1 0 -1 0 0 0 0 0 0 0 0 0 0 -1 0 0 0 0 0 -1 -1 0 -1 0 0 0 -1 0 -1 0 -1 0 0 0 -1 0 -1 0 -1 0 -1 0 0 0 0 0 0 0 0 -1 0 0 0 -1 0 -1 0 0 0 0 0 -1 -1 0 0 -1 -1 0 0 -1 -1 0 0 -1 -1 0 0 0 0 0 0 0 0 0 0 0 0 0 0 0 0 0 0 0 0 0 0 0 0 0 0 0 0 0 0 0 0 0 0 0 0 0 0 0 0 0 0 0 0 0 0 -1 -1 -1 -1 -1 -1 -1 -1 -1 -1 -1 -1 -1 -1 -1 -1 -1 -1 -1 -1 -1 -1 -1 -1 -1 -1 -1 -1 -1 -1 -1 -1 -1 -1 -1 

