# vtk DataFile Version 3.0
Generated by GMDS VTK Writer

ASCII
DATASET UNSTRUCTURED_GRID
POINTS 36 float
5 0 0
5 0 -5
10 -5 10
10 5 0
-5 5 0
0 5 -5
0 5 0
0 -5 0
0 5 10
0 10 0
-5 0 0
0 0 0
0 0 -5
10 0 0
0 0 10
10 -4.44089209850063e-16 10
-5 5 5
0 5 5
0 10 5
10 5 5
0 -5 5
0 0 5
-5 0 5
10 -5 5
10 0 5
5 5 0
5 5 -5
5 -5 0
5 5 5
5 10 5
5 10 0
5 5 10
5 -5 10
5 0 10
5 0 5
5 -5 5

CELLS 8 72
8 12 11 6 5 1 0 25 26 
8 17 18 9 6 28 29 30 25 
8 22 21 17 16 10 11 6 4 
8 32 33 34 35 2 15 24 23 
8 20 21 11 7 35 34 0 27 
8 8 14 21 17 31 33 34 28 
8 17 21 11 6 28 34 0 25 
8 28 34 0 25 19 24 13 3 

CELL_TYPES 8
12 
12 
12 
12 
12 
12 
12 
12 
POINT_DATA 36
SCALARS GMDS_ID int 1
LOOKUP_TABLE default
0 1 7 14 15 19 20 21 22 25 28 29 30 31 34 35 37 38 39 40 43 44 45 46 47 48 49 51 52 53 54 55 58 59 60 61 
SCALARS geom_link_dim int 1
LOOKUP_TABLE default
1 1 0 1 1 1 1 1 1 1 1 1 1 1 1 0 1 1 1 1 1 1 1 0 1 1 1 1 1 1 1 1 0 1 1 1 
SCALARS geom_link_id int 1
LOOKUP_TABLE default
26 25 -1 21 5 18 1 28 16 4 11 12 19 29 20 -1 6 2 3 22 27 14 13 -1 30 10 17 31 8 7 9 15 -1 24 23 32 


CELL_DATA 8
SCALARS GMDS_ID int 1
LOOKUP_TABLE default
8 13 19 27 28 30 32 33 

SCALARS is_in int 1
LOOKUP_TABLE default
1 1 1 0 1 1 1 1 

SCALARS geom_link_dim int 1
LOOKUP_TABLE default
0 0 0 0 0 0 0 0 

SCALARS geom_link_id int 1
LOOKUP_TABLE default
0 0 0 0 0 0 0 0 

