# vtk DataFile Version 3.0
Generated by GMDS VTK Writer

ASCII
DATASET UNSTRUCTURED_GRID
POINTS 100 float
0 0 0
0 10 0
10 10 0
10 0 0
0 0 10
0 10 10
10 10 10
10 0 10
0 4 0
0 4 10
10 4 10
10 4 0
1 0 0
1 0 10
1 4 10
1 4 0
1 10 10
1 10 0
4 0 0
4 0 10
4 4 10
4 4 0
4 10 10
4 10 0
1 0 6
1 4 6
0 4 6
0 0 6
4 0 6
4 4 6
10 0 6
10 4 6
1 10 6
0 10 6
10 10 6
4 10 6
0 1 10
1 1 10
1 1 6
0 1 6
1 1 0
0 1 0
4 1 10
4 1 6
4 1 0
10 1 10
10 1 6
10 1 0
0 1 4
1 1 4
1 4 4
0 4 4
0 0 4
1 0 4
1 10 4
0 10 4
10 10 4
10 4 4
4 4 4
4 10 4
4 0 4
4 1 4
10 0 4
10 1 4
6 10 10
6 4 10
6 4 6
6 10 6
6 0 10
6 0 6
6 1 6
6 1 10
6 10 0
6 4 0
6 4 4
6 10 4
6 0 0
6 1 0
6 1 4
6 0 4
0 8 10
1 8 10
1 8 6
0 8 6
0 8 4
1 8 4
0 8 0
1 8 0
4 8 10
4 8 6
6 8 10
6 8 6
10 8 10
10 8 6
4 8 0
4 8 4
10 8 0
10 8 4
6 8 4
6 8 0

CELLS 48 432
8 13 19 28 24 37 42 43 38 
8 37 42 43 38 14 20 29 25 
8 36 37 38 39 9 14 25 26 
8 4 13 24 27 36 37 38 39 
8 52 53 49 48 27 24 38 39 
8 0 12 40 41 52 53 49 48 
8 48 49 50 51 39 38 25 26 
8 41 40 15 8 48 49 50 51 
8 65 66 29 20 90 91 89 88 
8 71 70 66 65 42 43 29 20 
8 45 46 31 10 71 70 66 65 
8 68 69 70 71 19 28 43 42 
8 7 30 46 45 68 69 70 71 
8 81 88 89 82 16 22 35 32 
8 14 20 29 25 81 88 89 82 
8 86 87 85 84 1 17 54 55 
8 8 15 50 51 86 87 85 84 
8 12 18 44 40 53 60 61 49 
8 53 60 61 49 24 28 43 38 
8 40 44 21 15 49 61 58 50 
8 49 61 58 50 38 43 29 25 
8 84 85 82 83 55 54 32 33 
8 51 50 25 26 84 85 82 83 
8 80 81 82 83 5 16 32 33 
8 9 14 25 26 80 81 82 83 
8 3 47 63 62 76 77 78 79 
8 76 77 78 79 18 44 61 60 
8 62 63 46 30 79 78 70 69 
8 79 78 70 69 60 61 43 28 
8 11 47 63 57 73 77 78 74 
8 73 77 78 74 21 44 61 58 
8 57 63 46 31 74 78 70 66 
8 74 78 70 66 58 61 43 29 
8 90 91 89 88 64 67 35 22 
8 10 31 66 65 92 93 91 90 
8 92 93 91 90 6 34 67 64 
8 15 21 58 50 87 94 95 85 
8 87 94 95 85 17 23 59 54 
8 50 58 29 25 85 95 89 82 
8 85 95 89 82 54 59 35 32 
8 11 57 74 73 96 97 98 99 
8 96 97 98 99 2 56 75 72 
8 73 74 58 21 99 98 95 94 
8 99 98 95 94 72 75 59 23 
8 31 57 74 66 93 97 98 91 
8 93 97 98 91 34 56 75 67 
8 66 74 58 29 91 98 95 89 
8 91 98 95 89 67 75 59 35 

CELL_TYPES 48
12 
12 
12 
12 
12 
12 
12 
12 
12 
12 
12 
12 
12 
12 
12 
12 
12 
12 
12 
12 
12 
12 
12 
12 
12 
12 
12 
12 
12 
12 
12 
12 
12 
12 
12 
12 
12 
12 
12 
12 
12 
12 
12 
12 
12 
12 
12 
12 
POINT_DATA 100
SCALARS GMDS_ID int 1
LOOKUP_TABLE default
0 1 2 3 4 5 6 7 8 9 10 11 12 13 14 15 16 17 18 19 20 21 22 23 24 25 26 27 28 29 30 31 32 33 34 35 36 37 38 39 40 41 42 43 44 45 46 47 48 49 50 51 52 53 54 55 56 57 58 59 60 61 62 63 64 65 66 67 68 69 70 71 72 73 74 75 76 77 78 79 80 81 82 83 84 85 86 87 88 89 90 91 92 93 94 95 96 97 98 99 
SCALARS geom_link_dim int 1
LOOKUP_TABLE default
1 1 1 1 1 1 1 1 2 2 2 2 2 2 3 3 2 2 2 2 3 3 2 2 3 0 3 2 3 0 2 3 3 2 2 3 2 3 0 3 3 2 3 0 3 2 3 2 3 0 0 3 2 3 3 2 2 3 0 3 3 0 2 3 2 3 0 3 2 3 0 3 2 3 0 3 2 3 0 3 2 3 0 3 3 0 2 3 3 0 3 0 2 3 3 0 2 3 0 3 
SCALARS geom_link_id int 1
LOOKUP_TABLE default
10 12 16 13 9 11 15 14 19 29 26 31 20 28 18 11 25 30 20 28 18 11 25 30 12 0 10 21 12 0 33 13 17 32 27 17 29 18 0 10 11 19 18 0 11 26 13 31 10 0 0 10 21 12 17 32 27 13 0 17 12 0 33 13 25 18 0 17 28 12 0 18 30 11 0 17 20 11 0 12 29 18 -1 10 10 -1 19 11 18 -1 18 -1 26 13 11 -1 31 13 -1 11 


CELL_DATA 48
SCALARS GMDS_ID int 1
LOOKUP_TABLE default
1 3 6 7 8 9 10 11 14 15 17 18 19 20 21 24 25 28 29 30 31 32 33 34 35 37 38 39 40 41 42 43 44 45 46 47 48 49 50 51 52 53 54 55 56 57 58 59 

SCALARS is_in int 1
LOOKUP_TABLE default
1 1 1 1 1 1 1 1 1 1 1 1 1 1 1 1 1 1 1 0 1 1 1 1 1 1 1 1 1 1 1 1 1 1 0 1 1 1 1 1 1 1 1 1 1 1 1 1 

SCALARS geom_link_dim int 1
LOOKUP_TABLE default
0 0 0 0 0 0 0 0 0 0 0 0 0 0 0 0 0 0 0 0 0 0 0 0 0 0 0 0 0 0 0 0 0 0 0 0 0 0 0 0 0 0 0 0 0 0 0 0 

SCALARS geom_link_id int 1
LOOKUP_TABLE default
0 0 0 0 0 0 0 0 -1 0 0 0 0 -1 -1 -1 -1 0 0 0 0 -1 -1 -1 -1 0 0 0 0 0 0 0 0 -1 -1 -1 -1 -1 -1 -1 -1 -1 -1 -1 -1 -1 -1 -1 

