# vtk DataFile Version 3.0
Generated by GMDS VTK Writer

ASCII
DATASET UNSTRUCTURED_GRID
POINTS 216 float
0 0 0
0 10 0
10 10 0
10 0 0
0 0 10
0 10 10
10 10 10
10 0 10
0 1 0
0 1 10
10 1 10
10 1 0
0 0 1
10 0 1
10 1 1
0 1 1
10 10 1
0 10 1
0 6 0
10 6 0
10 6 1
0 6 1
10 6 10
0 6 10
0 0 8
10 0 8
10 1 8
0 1 8
10 6 8
0 6 8
10 10 8
0 10 8
0 4 8
10 4 8
10 4 1
0 4 1
0 4 0
10 4 0
0 4 10
10 4 10
10 4 4
0 4 4
0 6 4
10 6 4
10 1 4
0 1 4
0 0 4
10 0 4
10 10 4
0 10 4
1 0 10
1 1 10
1 1 8
1 0 8
1 0 0
1 1 0
1 1 1
1 0 1
1 6 0
1 6 1
1 10 1
1 10 0
1 6 4
1 4 4
1 4 1
1 6 8
1 4 8
1 10 10
1 6 10
1 10 8
1 4 0
1 4 10
1 1 4
1 0 4
1 10 4
4 0 10
4 1 10
4 1 8
4 0 8
4 0 0
4 1 0
4 1 1
4 0 1
4 6 0
4 6 1
4 10 1
4 10 0
4 6 4
4 4 4
4 4 1
4 6 8
4 4 8
4 10 10
4 6 10
4 10 8
4 4 0
4 4 10
4 1 4
4 0 4
4 10 4
4 8 1
4 8 0
10 8 0
10 8 1
1 8 1
1 8 0
0 8 0
0 8 1
0 8 10
0 8 8
1 8 8
1 8 10
0 8 4
1 8 4
4 8 8
4 8 10
10 8 8
10 8 10
4 8 4
10 8 4
8 6 4
8 4 4
8 4 1
8 6 1
8 0 0
8 1 0
8 1 1
8 0 1
8 0 10
8 1 10
8 1 8
8 0 8
8 8 1
8 8 0
8 6 0
8 10 1
8 10 0
8 6 8
8 4 8
8 4 0
8 4 10
8 6 10
8 1 4
8 0 4
8 10 10
8 10 8
8 8 8
8 8 10
8 10 4
8 8 4
1 6 6
1 4 6
4 4 6
4 6 6
0 0 6
0 1 6
1 1 6
1 0 6
8 1 6
8 0 6
10 0 6
10 1 6
4 1 6
4 0 6
0 8 6
1 8 6
0 6 6
0 10 6
1 10 6
0 4 6
4 10 6
4 8 6
8 4 6
8 6 6
10 4 6
10 6 6
8 8 6
8 10 6
10 8 6
10 10 6
6 6 4
6 4 4
6 4 1
6 6 1
6 0 0
6 1 0
6 1 1
6 0 1
6 0 10
6 1 10
6 1 8
6 0 8
6 1 6
6 0 6
6 0 4
6 1 4
6 8 1
6 8 0
6 6 0
6 10 1
6 10 0
6 4 0
6 4 8
6 4 10
6 6 8
6 6 10
6 10 10
6 10 8
6 8 8
6 8 10
6 6 6
6 4 6
6 10 4
6 8 4
6 8 6
6 10 6

CELLS 124 1116
8 70 64 59 58 95 89 84 83 
8 29 32 66 65 166 169 151 150 
8 55 56 64 70 80 81 89 95 
8 166 169 151 150 42 41 63 62 
8 158 159 160 161 142 143 47 44 
8 167 168 165 164 49 74 113 112 
8 0 8 15 12 54 55 56 57 
8 162 163 98 97 192 193 194 195 
8 128 129 130 131 7 10 26 25 
8 4 9 27 24 50 51 52 53 
8 189 190 202 203 129 130 138 140 
8 69 94 114 110 168 170 171 165 
8 62 63 64 59 87 88 89 84 
8 192 193 194 195 158 159 143 142 
8 156 151 152 162 72 63 88 97 
8 54 55 56 57 79 80 81 82 
8 52 66 91 77 156 151 152 162 
8 50 51 52 53 75 76 77 78 
8 135 136 133 132 16 2 102 103 
8 111 110 114 115 68 65 90 93 
8 42 41 35 21 62 63 64 59 
8 67 69 94 92 111 110 114 115 
8 77 78 163 162 190 191 193 192 
8 107 112 113 104 21 42 62 59 
8 17 49 74 60 107 112 113 104 
8 8 15 35 36 55 56 64 70 
8 80 81 89 95 185 186 182 201 
8 36 35 21 18 70 64 59 58 
8 190 191 193 192 130 131 159 158 
8 9 27 32 38 51 52 66 71 
8 108 109 110 111 23 29 65 68 
8 38 32 29 23 71 66 65 68 
8 5 31 69 67 108 109 110 111 
8 199 200 197 196 135 136 133 132 
8 106 107 104 105 18 21 59 58 
8 45 41 35 15 72 63 64 56 
8 1 17 60 61 106 107 104 105 
8 76 77 91 96 189 190 202 203 
8 104 105 101 100 59 58 83 84 
8 46 45 15 12 73 72 56 57 
8 60 61 86 85 104 105 101 100 
8 132 133 134 123 103 102 19 20 
8 155 169 151 156 45 41 63 72 
8 27 32 66 52 155 169 151 156 
8 51 52 66 71 76 77 91 96 
8 31 69 110 109 167 168 165 164 
8 71 66 65 68 96 91 90 93 
8 164 165 150 166 112 113 62 42 
8 85 86 101 100 199 200 197 196 
8 109 110 65 29 164 165 150 166 
8 65 66 91 90 150 151 152 153 
8 156 157 163 162 72 73 98 97 
8 185 186 182 201 125 126 122 139 
8 52 53 78 77 156 157 163 162 
8 73 72 56 57 98 97 81 82 
8 124 125 126 127 3 11 14 13 
8 120 121 122 123 43 40 34 20 
8 196 197 198 183 132 133 134 123 
8 100 101 83 84 196 197 198 183 
8 130 131 25 26 158 159 160 161 
8 154 155 156 157 46 45 72 73 
8 60 74 99 85 104 113 118 100 
8 104 113 118 100 59 62 87 84 
8 24 27 52 53 154 155 156 157 
8 150 151 152 153 62 63 88 87 
8 125 126 122 139 11 14 34 37 
8 139 122 123 134 37 34 20 19 
8 129 130 138 140 10 26 33 39 
8 140 138 137 141 39 33 28 22 
8 188 189 190 191 128 129 130 131 
8 75 76 77 78 188 189 190 191 
8 142 121 122 126 44 40 34 14 
8 95 89 84 83 201 182 183 198 
8 201 182 183 198 139 122 123 134 
8 143 142 126 127 47 44 14 13 
8 144 145 146 147 6 30 116 117 
8 147 146 137 141 117 116 28 22 
8 184 185 186 187 124 125 126 127 
8 79 80 81 82 184 185 186 187 
8 180 181 182 183 120 121 122 123 
8 87 88 89 84 180 181 182 183 
8 135 148 149 132 16 48 119 103 
8 132 149 120 123 103 119 43 20 
8 168 170 171 165 74 99 118 113 
8 110 114 90 65 165 171 153 150 
8 165 171 153 150 113 118 87 62 
8 137 138 33 28 173 172 174 175 
8 173 172 174 175 120 121 40 43 
8 130 138 33 26 158 172 174 161 
8 158 172 174 161 142 121 40 44 
8 145 146 116 30 177 176 178 179 
8 177 176 178 179 148 149 119 48 
8 137 146 116 28 173 176 178 175 
8 173 176 178 175 120 149 119 43 
8 96 91 90 93 203 202 204 205 
8 203 202 204 205 140 138 137 141 
8 97 88 89 81 195 181 182 186 
8 195 181 182 186 142 121 122 126 
8 98 97 81 82 194 195 186 187 
8 194 195 186 187 143 142 126 127 
8 92 94 114 115 206 207 208 209 
8 206 207 208 209 144 145 146 147 
8 115 114 90 93 209 208 204 205 
8 209 208 204 205 147 146 137 141 
8 153 152 88 87 210 211 181 180 
8 210 211 181 180 173 172 121 120 
8 90 91 152 153 204 202 211 210 
8 204 202 211 210 137 138 172 173 
8 85 99 118 100 199 212 213 196 
8 199 212 213 196 135 148 149 132 
8 100 118 87 84 196 213 180 183 
8 196 213 180 183 132 149 120 123 
8 77 91 152 162 190 202 211 192 
8 190 202 211 192 130 138 172 158 
8 162 152 88 97 192 211 181 195 
8 192 211 181 195 158 172 121 142 
8 94 114 171 170 207 208 214 215 
8 207 208 214 215 145 146 176 177 
8 170 171 118 99 215 214 213 212 
8 215 214 213 212 177 176 149 148 
8 90 114 171 153 204 208 214 210 
8 204 208 214 210 137 146 176 173 
8 153 171 118 87 210 214 213 180 
8 210 214 213 180 173 176 149 120 

CELL_TYPES 124
12 
12 
12 
12 
12 
12 
12 
12 
12 
12 
12 
12 
12 
12 
12 
12 
12 
12 
12 
12 
12 
12 
12 
12 
12 
12 
12 
12 
12 
12 
12 
12 
12 
12 
12 
12 
12 
12 
12 
12 
12 
12 
12 
12 
12 
12 
12 
12 
12 
12 
12 
12 
12 
12 
12 
12 
12 
12 
12 
12 
12 
12 
12 
12 
12 
12 
12 
12 
12 
12 
12 
12 
12 
12 
12 
12 
12 
12 
12 
12 
12 
12 
12 
12 
12 
12 
12 
12 
12 
12 
12 
12 
12 
12 
12 
12 
12 
12 
12 
12 
12 
12 
12 
12 
12 
12 
12 
12 
12 
12 
12 
12 
12 
12 
12 
12 
12 
12 
12 
12 
12 
12 
12 
12 
POINT_DATA 216
SCALARS GMDS_ID int 1
LOOKUP_TABLE default
0 1 2 3 4 5 6 7 8 9 10 11 12 13 14 15 16 17 18 19 20 21 22 23 24 25 26 27 28 29 30 31 32 33 34 35 36 37 38 39 40 41 42 43 44 45 46 47 48 49 50 51 52 53 54 55 56 57 58 59 60 61 62 63 64 65 66 67 68 69 70 71 72 73 74 75 76 77 78 79 80 81 82 83 84 85 86 87 88 89 90 91 92 93 94 95 96 97 98 99 100 101 102 103 104 105 106 107 108 109 110 111 112 113 114 115 116 117 118 119 120 121 122 123 124 125 126 127 128 129 130 131 132 133 134 135 136 137 138 139 140 141 142 143 144 145 146 147 148 149 150 151 152 153 154 155 156 157 158 159 160 161 162 163 164 165 166 167 168 169 170 171 172 173 174 175 176 177 178 179 180 181 182 183 184 185 186 187 188 189 190 191 192 193 194 195 196 197 198 199 200 201 202 203 204 205 206 207 208 209 210 211 212 213 214 215 
SCALARS geom_link_dim int 1
LOOKUP_TABLE default
1 1 1 1 1 1 1 1 2 2 2 2 2 2 3 3 2 2 2 2 3 3 2 2 2 2 3 3 3 3 2 2 3 3 3 3 2 2 2 2 3 3 3 3 3 3 2 2 2 2 2 3 0 3 2 3 1 3 3 0 3 2 0 1 1 0 0 2 3 3 3 3 1 3 3 2 3 0 3 2 3 1 3 3 0 3 2 0 1 1 0 0 2 3 3 3 3 1 3 3 0 3 2 3 0 3 2 3 2 3 0 3 3 0 0 3 3 2 0 3 0 0 0 0 2 3 0 3 2 3 0 3 0 3 3 3 2 0 0 3 3 3 0 3 2 3 0 3 3 0 0 0 0 0 2 3 0 3 0 3 2 3 0 3 3 0 3 2 3 3 3 0 0 0 3 3 0 3 3 2 0 0 0 0 2 3 0 3 2 3 0 3 0 3 3 0 0 3 3 3 2 3 0 3 0 3 2 3 0 3 0 0 3 0 0 3 
SCALARS geom_link_id int 1
LOOKUP_TABLE default
10 12 16 13 9 11 15 14 19 29 26 31 21 33 13 10 27 32 19 31 13 10 26 29 21 33 13 10 13 10 27 32 10 13 13 10 19 31 29 26 13 10 10 13 13 10 21 33 27 32 28 18 0 12 20 11 18 12 11 0 17 30 0 19 20 0 0 25 18 17 11 18 17 12 17 28 18 0 12 20 11 21 12 11 0 17 30 0 23 24 0 0 25 18 17 11 18 22 12 17 0 11 31 13 0 11 19 10 29 10 0 18 10 0 0 18 13 26 0 13 0 0 0 0 20 11 0 12 28 18 0 12 0 11 11 17 30 0 0 11 18 18 0 12 25 17 0 18 17 0 0 0 0 0 21 10 0 12 0 12 33 13 0 12 10 0 10 32 17 10 17 0 0 0 13 13 0 17 13 27 -1 -1 -1 -1 20 11 -1 12 28 18 -1 12 -1 12 12 -1 -1 11 11 17 30 11 -1 18 -1 18 25 17 -1 18 -1 -1 17 -1 -1 17 


CELL_DATA 124
SCALARS GMDS_ID int 1
LOOKUP_TABLE default
0 1 2 3 4 5 7 9 10 11 12 13 14 15 16 17 18 19 20 21 22 23 24 25 27 28 29 30 31 32 33 34 35 36 37 38 39 40 41 42 43 44 45 47 48 49 50 51 52 53 54 55 56 57 58 60 62 64 65 66 67 68 69 70 71 73 75 77 79 80 81 83 84 85 87 89 91 92 93 94 95 97 99 100 101 102 105 106 109 110 113 114 117 118 119 120 121 122 123 124 125 126 127 128 129 130 131 132 133 134 135 136 137 138 139 140 141 142 143 144 145 146 147 148 

SCALARS is_in int 1
LOOKUP_TABLE default
1 1 1 1 1 1 1 1 1 1 1 1 1 1 1 1 1 1 1 1 1 1 1 1 1 1 1 1 1 1 1 1 1 1 1 1 1 1 1 1 1 1 1 1 1 1 1 1 1 1 1 1 1 1 1 1 1 1 1 1 1 1 1 1 1 1 1 1 1 1 1 1 1 1 1 1 1 1 1 1 1 1 1 1 1 1 1 1 1 1 1 1 1 1 1 1 1 1 1 1 1 1 1 1 1 1 1 1 1 1 1 1 1 1 1 1 1 1 1 1 1 0 1 1 

SCALARS geom_link_dim int 1
LOOKUP_TABLE default
0 0 0 0 0 0 0 0 0 0 0 0 0 0 0 0 0 0 0 0 0 0 0 0 0 0 0 0 0 0 0 0 0 0 0 0 0 0 0 0 0 0 0 0 0 0 0 0 0 0 0 0 0 0 0 0 0 0 0 0 0 0 0 0 0 0 0 0 0 0 0 0 0 0 0 0 0 0 0 0 0 0 0 0 0 0 0 0 0 0 0 0 0 0 0 0 0 0 0 0 0 0 0 0 0 0 0 0 0 0 0 0 0 0 0 0 0 0 0 0 0 0 0 0 

SCALARS geom_link_id int 1
LOOKUP_TABLE default
0 0 0 0 0 0 0 -1 0 0 -1 0 0 -1 0 0 0 0 0 0 0 0 -1 0 0 0 -1 0 -1 0 0 0 0 -1 0 0 0 -1 0 0 0 0 0 0 0 0 0 0 -1 0 0 0 -1 0 0 0 0 -1 -1 0 0 0 0 0 0 0 0 0 0 -1 -1 0 -1 -1 0 0 0 -1 -1 -1 -1 0 0 0 0 0 0 0 0 0 0 0 0 0 -1 -1 -1 -1 -1 -1 -1 -1 -1 -1 -1 -1 -1 -1 -1 -1 -1 -1 -1 -1 -1 -1 -1 -1 -1 -1 -1 -1 -1 -1 

