# vtk DataFile Version 3.0
Generated by GMDS VTK Writer

ASCII
DATASET UNSTRUCTURED_GRID
POINTS 50 float
0 0 0
0 10 0
10 10 0
10 0 0
0 0 10
0 10 10
10 10 10
10 0 10
0 1 0
0 1 10
10 1 10
10 1 0
0 0 1
10 0 1
10 1 1
0 1 1
10 10 1
0 10 1
0 6 0
10 6 0
10 6 1
0 6 1
10 6 10
0 6 10
0 0 8
10 0 8
10 1 8
0 1 8
10 6 8
0 6 8
10 10 8
0 10 8
0 4 8
10 4 8
10 4 1
0 4 1
0 4 0
10 4 0
0 4 10
10 4 10
10 4 4
0 4 4
0 6 4
10 6 4
10 1 4
0 1 4
0 0 4
10 0 4
10 10 4
0 10 4

CELLS 16 144
8 0 3 11 8 12 13 14 15 
8 18 19 20 21 1 2 16 17 
8 40 41 42 43 34 35 21 20 
8 8 11 14 15 36 37 34 35 
8 4 7 10 9 24 25 26 27 
8 33 32 29 28 40 41 42 43 
8 26 27 32 33 44 45 41 40 
8 23 22 6 5 29 28 30 31 
8 36 37 34 35 18 19 20 21 
8 9 10 26 27 38 39 33 32 
8 38 39 33 32 23 22 28 29 
8 44 45 41 40 14 15 35 34 
8 24 25 26 27 46 47 44 45 
8 46 47 44 45 12 13 14 15 
8 29 28 30 31 42 43 48 49 
8 42 43 48 49 21 20 16 17 

CELL_TYPES 16
12 
12 
12 
12 
12 
12 
12 
12 
12 
12 
12 
12 
12 
12 
12 
12 
POINT_DATA 50
SCALARS GMDS_ID int 1
LOOKUP_TABLE default
0 1 2 3 4 5 6 7 8 9 10 11 12 13 14 15 16 17 18 19 20 21 22 23 24 25 26 27 28 29 30 31 32 33 34 35 36 37 38 39 40 41 42 43 44 45 46 47 48 49 
SCALARS geom_link_dim int 1
LOOKUP_TABLE default
1 1 1 1 1 1 1 1 2 2 2 2 2 2 3 3 2 2 2 2 3 3 2 2 2 2 3 3 3 3 2 2 3 3 3 3 2 2 2 2 3 3 3 3 3 3 2 2 2 2 
SCALARS geom_link_id int 1
LOOKUP_TABLE default
10 12 16 13 9 11 15 14 19 29 26 31 21 33 13 10 27 32 19 31 13 10 26 29 21 33 13 10 13 10 27 32 10 13 13 10 19 31 29 26 13 10 10 13 13 10 21 33 27 32 


CELL_DATA 16
SCALARS GMDS_ID int 1
LOOKUP_TABLE default
0 1 2 3 5 8 9 10 12 13 14 15 16 17 18 19 

SCALARS is_in int 1
LOOKUP_TABLE default
1 1 1 1 1 1 1 1 1 1 1 1 1 1 1 1 

SCALARS geom_link_dim int 1
LOOKUP_TABLE default
0 0 0 0 0 0 0 0 0 0 0 0 0 0 0 0 

SCALARS geom_link_id int 1
LOOKUP_TABLE default
0 0 -1 0 0 -1 -1 0 0 0 0 -1 -1 -1 -1 -1 

