# vtk DataFile Version 3.0
Generated by GMDS VTK Writer

ASCII
DATASET UNSTRUCTURED_GRID
POINTS 47 float
5 0 0
5 0 -5
10 10 -5
-5 -5 10
10 -5 10
-5 5 10
10 5 10
10 5 -5
-5 -5 -8.88178419700125e-16
10 5 0
-5 5 0
10 10 -8.88178419700125e-16
0 5 -5
0 5 0
0 -5 0
0 5 10
-8.88178419700125e-16 -5 10
0 10 0
-5 0 0
0 0 0
0 0 -5
10 0 0
-5 -4.44089209850063e-16 10
0 0 10
10 -4.44089209850063e-16 10
-5 5 5
0 5 5
0 10 5
10 5 5
-5 -5 5
0 -5 5
0 0 5
-5 0 5
10 -5 5
10 0 5
5 5 0
5 5 -5
5 -5 0
5 5 5
5 10 5
5 10 0
5 5 10
5 10 -5
5 -5 10
5 0 10
5 0 5
5 -5 5

CELLS 13 117
8 20 19 13 12 1 0 35 36 
8 26 27 17 13 38 39 40 35 
8 3 16 23 22 29 30 31 32 
8 29 30 31 32 8 14 19 18 
8 22 23 15 5 32 31 26 25 
8 32 31 26 25 18 19 13 10 
8 42 36 35 40 2 7 9 11 
8 43 44 45 46 4 24 34 33 
8 30 31 19 14 46 45 0 37 
8 15 23 31 26 41 44 45 38 
8 41 44 45 38 6 24 34 28 
8 26 31 19 13 38 45 0 35 
8 38 45 0 35 28 34 21 9 

CELL_TYPES 13
12 
12 
12 
12 
12 
12 
12 
12 
12 
12 
12 
12 
12 
POINT_DATA 47
SCALARS GMDS_ID int 1
LOOKUP_TABLE default
0 1 2 4 7 9 10 11 12 14 15 16 19 20 21 22 23 25 28 29 30 31 33 34 35 37 38 39 40 42 43 44 45 46 47 48 49 51 52 53 54 55 57 58 59 60 61 
SCALARS geom_link_dim int 1
LOOKUP_TABLE default
1 1 0 0 0 0 0 0 0 1 1 0 1 1 1 1 0 1 1 1 1 1 0 1 0 1 1 1 1 0 1 1 1 0 1 1 1 1 1 1 1 1 0 0 1 1 1 
SCALARS geom_link_id int 1
LOOKUP_TABLE default
26 25 -1 -1 -1 -1 -1 -1 -1 21 5 -1 18 1 28 16 -1 4 11 12 19 29 -1 20 -1 6 2 3 22 -1 27 14 13 -1 30 10 17 31 8 7 9 15 -1 -1 24 23 32 


CELL_DATA 13
SCALARS GMDS_ID int 1
LOOKUP_TABLE default
8 13 16 17 18 19 25 27 28 30 31 32 33 

SCALARS is_in int 1
LOOKUP_TABLE default
1 1 0 0 0 1 0 0 1 1 0 1 1 

SCALARS geom_link_dim int 1
LOOKUP_TABLE default
0 0 0 0 0 0 0 0 0 0 0 0 0 

SCALARS geom_link_id int 1
LOOKUP_TABLE default
0 0 0 0 0 0 0 0 0 0 0 0 0 

