# vtk DataFile Version 3.0
Generated by GMDS VTK Writer

ASCII
DATASET UNSTRUCTURED_GRID
POINTS 37 float
5 0 0
5 0 -5
10 -5 10
10 5 10
10 5 0
-5 5 0
0 5 -5
0 5 0
0 -5 0
0 5 10
0 10 0
-5 0 0
0 0 0
0 0 -5
10 0 0
0 0 10
10 -4.44089209850063e-16 10
-5 5 5
0 5 5
0 10 5
10 5 5
0 -5 5
0 0 5
-5 0 5
10 -5 5
10 0 5
5 5 0
5 5 -5
5 -5 0
5 5 5
5 10 5
5 10 0
5 5 10
5 -5 10
5 0 10
5 0 5
5 -5 5

CELLS 9 81
8 13 12 7 6 1 0 26 27 
8 18 19 10 7 29 30 31 26 
8 23 22 18 17 11 12 7 5 
8 33 34 35 36 2 16 25 24 
8 21 22 12 8 36 35 0 28 
8 9 15 22 18 32 34 35 29 
8 32 34 35 29 3 16 25 20 
8 18 22 12 7 29 35 0 26 
8 29 35 0 26 20 25 14 4 

CELL_TYPES 9
12 
12 
12 
12 
12 
12 
12 
12 
12 
POINT_DATA 37
SCALARS GMDS_ID int 1
LOOKUP_TABLE default
0 1 7 10 14 15 19 20 21 22 25 28 29 30 31 34 35 37 38 39 40 43 44 45 46 47 48 49 51 52 53 54 55 58 59 60 61 
SCALARS geom_link_dim int 1
LOOKUP_TABLE default
1 1 0 0 1 1 1 1 1 1 1 1 1 1 1 1 0 1 1 1 1 1 1 1 0 1 1 1 1 1 1 1 1 0 1 1 1 
SCALARS geom_link_id int 1
LOOKUP_TABLE default
26 25 -1 -1 21 5 18 1 28 16 4 11 12 19 29 20 -1 6 2 3 22 27 14 13 -1 30 10 17 31 8 7 9 15 -1 24 23 32 


CELL_DATA 9
SCALARS GMDS_ID int 1
LOOKUP_TABLE default
8 13 19 27 28 30 31 32 33 

SCALARS is_in int 1
LOOKUP_TABLE default
1 1 1 0 1 1 0 1 1 

SCALARS geom_link_dim int 1
LOOKUP_TABLE default
0 0 0 0 0 0 0 0 0 

SCALARS geom_link_id int 1
LOOKUP_TABLE default
0 0 0 0 0 0 0 0 0 

