# vtk DataFile Version 3.0
Generated by GMDS VTK Writer

ASCII
DATASET UNSTRUCTURED_GRID
POINTS 64 float
0 0 0
0 10 0
10 10 0
10 0 0
0 0 10
0 10 10
10 10 10
10 0 10
0 4 0
0 4 10
10 4 10
10 4 0
1 0 0
1 0 10
1 4 10
1 4 0
1 10 10
1 10 0
4 0 0
4 0 10
4 4 10
4 4 0
4 10 10
4 10 0
1 0 6
1 4 6
0 4 6
0 0 6
4 0 6
4 4 6
10 0 6
10 4 6
1 10 6
0 10 6
10 10 6
4 10 6
0 1 10
1 1 10
1 1 6
0 1 6
1 1 0
0 1 0
4 1 10
4 1 6
4 1 0
10 1 10
10 1 6
10 1 0
0 1 4
1 1 4
1 4 4
0 4 4
0 0 4
1 0 4
1 10 4
0 10 4
10 10 4
10 4 4
4 4 4
4 10 4
4 0 4
4 1 4
10 0 4
10 1 4

CELLS 27 243
8 17 15 8 1 54 50 51 55 
8 13 19 28 24 37 42 43 38 
8 37 42 43 38 14 20 29 25 
8 54 50 51 55 32 25 26 33 
8 36 37 38 39 9 14 25 26 
8 4 13 24 27 36 37 38 39 
8 52 53 49 48 27 24 38 39 
8 0 12 40 41 52 53 49 48 
8 48 49 50 51 39 38 25 26 
8 41 40 15 8 48 49 50 51 
8 16 14 9 5 32 25 26 33 
8 6 10 20 22 34 31 29 35 
8 22 20 14 16 35 29 25 32 
8 7 19 28 30 45 42 43 46 
8 45 42 43 46 10 20 29 31 
8 2 11 21 23 56 57 58 59 
8 56 57 58 59 34 31 29 35 
8 23 21 15 17 59 58 50 54 
8 59 58 50 54 35 29 25 32 
8 12 18 44 40 53 60 61 49 
8 53 60 61 49 24 28 43 38 
8 40 44 21 15 49 61 58 50 
8 49 61 58 50 38 43 29 25 
8 3 18 44 47 62 60 61 63 
8 62 60 61 63 30 28 43 46 
8 47 44 21 11 63 61 58 57 
8 63 61 58 57 46 43 29 31 

CELL_TYPES 27
12 
12 
12 
12 
12 
12 
12 
12 
12 
12 
12 
12 
12 
12 
12 
12 
12 
12 
12 
12 
12 
12 
12 
12 
12 
12 
12 
POINT_DATA 64
SCALARS GMDS_ID int 1
LOOKUP_TABLE default
0 1 2 3 4 5 6 7 8 9 10 11 12 13 14 15 16 17 18 19 20 21 22 23 24 25 26 27 28 29 30 31 32 33 34 35 36 37 38 39 40 41 42 43 44 45 46 47 48 49 50 51 52 53 54 55 56 57 58 59 60 61 62 63 
SCALARS geom_link_dim int 1
LOOKUP_TABLE default
1 1 1 1 1 1 1 1 2 2 2 2 2 2 3 3 2 2 2 2 3 3 2 2 3 0 3 2 3 0 2 3 3 2 2 3 2 3 0 3 3 2 3 0 3 2 3 2 3 0 0 3 2 3 3 2 2 3 0 3 3 0 2 3 
SCALARS geom_link_id int 1
LOOKUP_TABLE default
10 12 16 13 9 11 15 14 19 29 26 31 20 28 18 11 25 30 20 28 18 11 25 30 12 0 10 21 12 0 33 13 17 32 27 17 29 18 0 10 11 19 18 0 11 26 13 31 10 -1 -1 10 21 12 17 32 27 13 -1 17 12 -1 33 13 


CELL_DATA 27
SCALARS GMDS_ID int 1
LOOKUP_TABLE default
0 1 3 4 6 7 8 9 10 11 12 14 16 20 21 24 25 26 27 28 29 30 31 32 33 34 35 

SCALARS is_in int 1
LOOKUP_TABLE default
1 1 1 1 1 1 1 1 1 1 1 0 1 1 1 1 1 1 1 1 1 0 1 1 1 1 1 

SCALARS geom_link_dim int 1
LOOKUP_TABLE default
0 0 0 0 0 0 0 0 0 0 0 0 0 0 0 0 0 0 0 0 0 0 0 0 0 0 0 

SCALARS geom_link_id int 1
LOOKUP_TABLE default
-1 0 0 -1 0 0 -1 -1 -1 -1 0 0 0 0 0 -1 -1 -1 -1 -1 -1 -1 -1 -1 -1 -1 -1 

