# vtk DataFile Version 3.0
Generated by GMDS VTK Writer

ASCII
DATASET UNSTRUCTURED_GRID
POINTS 60 float
0 10 0
10 10 0
10 0 0
0 10 10
10 10 10
10 0 10
0 1 0
0 1 10
10 1 10
10 1 0
1 0 0
1 0 10
1 1 10
1 1 0
1 10 10
1 10 0
10 0 7
10 1 7
1 1 7
1 0 7
0 1 7
10 10 7
1 10 7
0 10 7
10 8 0
1 8 0
1 8 7
10 8 7
1 8 10
10 8 10
0 8 0
0 8 7
0 8 10
1 0 9
1 1 9
0 1 9
10 0 9
10 1 9
10 10 9
1 10 9
1 8 9
10 8 9
0 10 9
0 8 9
3 8 0
3 8 7
3 1 7
3 1 0
3 10 0
3 10 7
3 0 0
3 0 7
3 0 9
3 1 9
3 0 10
3 1 10
3 10 10
3 8 10
3 8 9
3 10 9

CELLS 22 198
8 1 21 27 24 48 49 45 44 
8 2 9 17 16 50 47 46 51 
8 48 49 45 44 15 22 26 25 
8 50 47 46 51 10 13 18 19 
8 0 15 22 23 30 25 26 31 
8 30 25 26 31 6 13 18 20 
8 44 45 46 47 25 26 18 13 
8 24 27 17 9 44 45 46 47 
8 3 14 28 32 42 39 40 43 
8 32 28 12 7 43 40 34 35 
8 43 40 34 35 31 26 18 20 
8 36 37 17 16 52 53 46 51 
8 52 53 46 51 33 34 18 19 
8 5 8 37 36 54 55 53 52 
8 54 55 53 52 11 12 34 33 
8 4 29 41 38 56 57 58 59 
8 56 57 58 59 14 28 40 39 
8 38 41 27 21 59 58 45 49 
8 8 29 41 37 55 57 58 53 
8 55 57 58 53 12 28 40 34 
8 37 41 27 17 53 58 45 46 
8 53 58 45 46 34 40 26 18 

CELL_TYPES 22
12 
12 
12 
12 
12 
12 
12 
12 
12 
12 
12 
12 
12 
12 
12 
12 
12 
12 
12 
12 
12 
12 
POINT_DATA 60
SCALARS GMDS_ID int 1
LOOKUP_TABLE default
1 2 3 5 6 7 8 9 10 11 12 13 14 15 16 17 18 19 20 21 22 24 25 26 27 28 29 30 31 32 33 34 35 36 37 38 40 41 42 43 44 45 46 47 48 49 50 51 52 53 54 55 56 57 58 59 60 61 62 63 
SCALARS geom_link_dim int 1
LOOKUP_TABLE default
1 1 1 1 1 1 1 1 2 2 1 1 1 1 2 2 2 3 2 2 2 2 2 1 2 3 2 3 3 2 2 1 2 2 2 2 2 3 2 2 2 3 1 1 3 1 4 3 2 1 2 3 3 4 2 3 2 3 1 1 
SCALARS geom_link_id int 1
LOOKUP_TABLE default
7 13 18 2 9 10 8 1 14 11 19 11 12 20 24 16 10 6 1 23 27 13 15 6 11 2 5 6 1 14 12 5 17 23 1 27 10 6 13 25 2 6 3 4 2 17 1 2 16 15 8 4 4 1 9 1 24 1 16 14 


CELL_DATA 22
SCALARS GMDS_ID int 1
LOOKUP_TABLE default
0 1 3 7 12 13 14 15 20 22 23 24 25 26 27 28 29 30 32 33 34 35 

SCALARS is_in int 1
LOOKUP_TABLE default
1 1 1 1 1 1 1 1 1 1 1 1 1 1 1 1 1 1 1 1 1 1 

SCALARS geom_link_dim int 1
LOOKUP_TABLE default
4 4 4 4 4 4 4 4 4 4 4 4 4 4 4 4 4 4 4 4 4 4 

SCALARS geom_link_id int 1
LOOKUP_TABLE default
1 1 1 1 1 1 1 1 1 1 1 1 1 1 1 1 1 1 1 1 1 1 

