# vtk DataFile Version 3.0
Generated by GMDS VTK Writer

ASCII
DATASET UNSTRUCTURED_GRID
POINTS 48 float
-5 -5 -5
-5 10 -5
10 10 -5
10 -5 -5
-5 -5 10
-5 10 10
10 10 10
10 -5 10
-5 5 -5
-5 5 10
10 5 10
10 5 -5
-5 -5 -8.88178419700125e-16
10 -5 -8.88178419700125e-16
10 5 0
-5 5 0
10 10 -8.88178419700125e-16
-5 10 -8.88178419700125e-16
-8.88178419700125e-16 -5 -5
0 5 -5
-8.88178419700125e-16 5 0
0 -5 0
0 5 10
-8.88178419700125e-16 -5 10
-8.88178419700125e-16 10 -5
0 10 0
-8.88178419700125e-16 10 10
-5 -4.44089209850063e-16 -5
-5 0 0
-4.44089209850063e-16 0 0
0 0 -5
10 0 0
10 -4.44089209850063e-16 -5
-5 -4.44089209850063e-16 10
0 0 10
10 -4.44089209850063e-16 10
-5 10 5
-5 5 5
-4.44089209850063e-16 5 5
0 10 5
10 5 5
10 10 5
-5 -5 5
0 -5 5
-2.22044604925031e-16 0 5
-5 0 5
10 -5 5
10 0 5

CELLS 18 162
8 30 29 31 32 19 20 14 11 
8 26 22 10 6 39 38 40 41 
8 39 38 40 41 25 20 14 16 
8 18 21 13 3 30 29 31 32 
8 27 28 29 30 8 15 20 19 
8 0 12 21 18 27 28 29 30 
8 36 37 38 39 17 15 20 25 
8 5 9 22 26 36 37 38 39 
8 1 8 15 17 24 19 20 25 
8 24 19 20 25 2 11 14 16 
8 4 23 34 33 42 43 44 45 
8 42 43 44 45 12 21 29 28 
8 33 34 22 9 45 44 38 37 
8 45 44 38 37 28 29 20 15 
8 7 23 34 35 46 43 44 47 
8 46 43 44 47 13 21 29 31 
8 35 34 22 10 47 44 38 40 
8 47 44 38 40 31 29 20 14 

CELL_TYPES 18
12 
12 
12 
12 
12 
12 
12 
12 
12 
12 
12 
12 
12 
12 
12 
12 
12 
12 
POINT_DATA 48
SCALARS GMDS_ID int 1
LOOKUP_TABLE default
0 1 2 3 4 5 6 7 8 9 10 11 12 13 14 15 16 17 18 19 20 21 22 23 24 25 26 27 28 29 30 31 32 33 34 35 36 37 38 39 40 41 42 43 44 45 46 47 
SCALARS geom_link_dim int 1
LOOKUP_TABLE default
0 0 0 0 0 0 0 0 0 0 0 0 0 0 1 1 0 0 0 1 0 1 1 0 0 1 0 0 1 0 1 1 0 0 1 0 0 1 0 1 1 0 0 1 0 1 0 1 
SCALARS geom_link_id int 1
LOOKUP_TABLE default
-1 -1 -1 -1 -1 -1 -1 -1 -1 -1 -1 -1 -1 -1 21 5 -1 -1 -1 18 0 28 16 -1 -1 4 -1 -1 11 0 19 29 -1 -1 20 -1 -1 6 -1 3 22 -1 -1 27 -1 13 -1 30 


CELL_DATA 18
SCALARS GMDS_ID int 1
LOOKUP_TABLE default
0 1 2 3 4 5 6 7 8 9 16 17 18 19 20 21 22 23 

SCALARS is_in int 1
LOOKUP_TABLE default
0 0 0 0 0 0 0 0 0 0 0 0 0 1 0 0 0 1 

SCALARS geom_link_dim int 1
LOOKUP_TABLE default
0 0 0 0 0 0 0 0 0 0 0 0 0 0 0 0 0 0 

SCALARS geom_link_id int 1
LOOKUP_TABLE default
0 -1 -1 0 0 0 -1 -1 0 0 -1 -1 -1 -1 -1 -1 -1 -1 

