# vtk DataFile Version 3.0
Generated by GMDS VTK Writer

ASCII
DATASET UNSTRUCTURED_GRID
POINTS 43 float
5 0 0
5 0 -5
10 10 -5
10 -5 10
10 5 10
10 5 -5
-5 -5 -8.88178419700125e-16
10 5 0
-5 5 0
10 10 -8.88178419700125e-16
0 5 -5
0 5 0
0 -5 0
0 5 10
0 10 0
-5 0 0
0 0 0
0 0 -5
10 0 0
0 0 10
10 -4.44089209850063e-16 10
-5 5 5
0 5 5
0 10 5
10 5 5
-5 -5 5
0 -5 5
0 0 5
-5 0 5
10 -5 5
10 0 5
5 5 0
5 5 -5
5 -5 0
5 5 5
5 10 5
5 10 0
5 5 10
5 10 -5
5 -5 10
5 0 10
5 0 5
5 -5 5

CELLS 11 99
8 17 16 11 10 1 0 31 32 
8 22 23 14 11 34 35 36 31 
8 25 26 27 28 6 12 16 15 
8 28 27 22 21 15 16 11 8 
8 38 32 31 36 2 5 7 9 
8 39 40 41 42 3 20 30 29 
8 26 27 16 12 42 41 0 33 
8 13 19 27 22 37 40 41 34 
8 37 40 41 34 4 20 30 24 
8 22 27 16 11 34 41 0 31 
8 34 41 0 31 24 30 18 7 

CELL_TYPES 11
12 
12 
12 
12 
12 
12 
12 
12 
12 
12 
12 
POINT_DATA 43
SCALARS GMDS_ID int 1
LOOKUP_TABLE default
0 1 2 7 10 11 12 14 15 16 19 20 21 22 25 28 29 30 31 34 35 37 38 39 40 42 43 44 45 46 47 48 49 51 52 53 54 55 57 58 59 60 61 
SCALARS geom_link_dim int 1
LOOKUP_TABLE default
1 1 0 0 0 0 0 1 1 0 1 1 1 1 1 1 1 1 1 1 0 1 1 1 1 0 1 1 1 0 1 1 1 1 1 1 1 1 0 0 1 1 1 
SCALARS geom_link_id int 1
LOOKUP_TABLE default
26 25 -1 -1 -1 -1 -1 21 5 -1 18 1 28 16 4 11 12 19 29 20 -1 6 2 3 22 -1 27 14 13 -1 30 10 17 31 8 7 9 15 -1 -1 24 23 32 


CELL_DATA 11
SCALARS GMDS_ID int 1
LOOKUP_TABLE default
8 13 17 19 25 27 28 30 31 32 33 

SCALARS is_in int 1
LOOKUP_TABLE default
1 1 0 1 0 0 1 1 0 1 1 

SCALARS geom_link_dim int 1
LOOKUP_TABLE default
0 0 0 0 0 0 0 0 0 0 0 

SCALARS geom_link_id int 1
LOOKUP_TABLE default
0 0 0 0 0 0 0 0 0 0 0 

