# vtk DataFile Version 3.0
Generated by GMDS VTK Writer

ASCII
DATASET UNSTRUCTURED_GRID
POINTS 46 float
10 10 -5
10 -5 -5
-5 -5 10
-5 10 10
10 10 10
10 -5 10
-5 5 -5
-5 5 10
10 5 10
10 5 -5
-5 -5 -8.88178419700125e-16
10 -5 -8.88178419700125e-16
10 5 0
-5 5 0
10 10 -8.88178419700125e-16
-5 10 -8.88178419700125e-16
-8.88178419700125e-16 -5 -5
0 5 -5
0 5 0
0 -5 0
0 5 10
-8.88178419700125e-16 -5 10
-8.88178419700125e-16 10 -5
0 10 0
-8.88178419700125e-16 10 10
-5 -4.44089209850063e-16 -5
-5 0 0
0 0 0
0 0 -5
10 0 0
10 -4.44089209850063e-16 -5
-5 -4.44089209850063e-16 10
0 0 10
10 -4.44089209850063e-16 10
-5 10 5
-5 5 5
-4.44089209850063e-16 5 5
0 10 5
10 5 5
10 10 5
-5 -5 5
0 -5 5
-2.22044604925031e-16 0 5
-5 0 5
10 -5 5
10 0 5

CELLS 16 144
8 28 27 29 30 17 18 12 9 
8 24 20 8 4 37 36 38 39 
8 37 36 38 39 23 18 12 14 
8 16 19 11 1 28 27 29 30 
8 25 26 27 28 6 13 18 17 
8 34 35 36 37 15 13 18 23 
8 3 7 20 24 34 35 36 37 
8 22 17 18 23 0 9 12 14 
8 2 21 32 31 40 41 42 43 
8 40 41 42 43 10 19 27 26 
8 31 32 20 7 43 42 36 35 
8 43 42 36 35 26 27 18 13 
8 5 21 32 33 44 41 42 45 
8 44 41 42 45 11 19 27 29 
8 33 32 20 8 45 42 36 38 
8 45 42 36 38 29 27 18 12 

CELL_TYPES 16
12 
12 
12 
12 
12 
12 
12 
12 
12 
12 
12 
12 
12 
12 
12 
12 
POINT_DATA 46
SCALARS GMDS_ID int 1
LOOKUP_TABLE default
2 3 4 5 6 7 8 9 10 11 12 13 14 15 16 17 18 19 20 21 22 23 24 25 26 27 28 29 30 31 32 33 34 35 36 37 38 39 40 41 42 43 44 45 46 47 
SCALARS geom_link_dim int 1
LOOKUP_TABLE default
0 0 0 0 0 0 0 0 0 0 0 0 1 1 0 0 0 1 1 1 1 0 0 1 0 0 1 1 1 1 0 0 1 0 0 1 0 1 1 0 0 1 0 1 0 1 
SCALARS geom_link_id int 1
LOOKUP_TABLE default
-1 -1 -1 -1 -1 -1 -1 -1 -1 -1 -1 -1 21 5 -1 -1 -1 18 1 28 16 -1 -1 4 -1 -1 11 12 19 29 -1 -1 20 -1 -1 6 0 3 22 -1 -1 27 0 13 -1 30 


CELL_DATA 16
SCALARS GMDS_ID int 1
LOOKUP_TABLE default
0 1 2 3 4 6 7 9 16 17 18 19 20 21 22 23 

SCALARS is_in int 1
LOOKUP_TABLE default
0 0 0 0 0 0 0 0 0 0 0 1 0 0 0 1 

SCALARS geom_link_dim int 1
LOOKUP_TABLE default
0 0 0 0 0 0 0 0 0 0 0 0 0 0 0 0 

SCALARS geom_link_id int 1
LOOKUP_TABLE default
0 0 0 0 0 0 0 0 0 0 0 0 0 0 0 0 

