# vtk DataFile Version 3.0
Generated by GMDS VTK Writer

ASCII
DATASET UNSTRUCTURED_GRID
POINTS 75 float
0 0 0
0 10 0
10 10 0
10 0 0
0 0 10
0 10 10
10 10 10
10 0 10
0 1 0
0 1 10
10 1 10
10 1 0
0 0 1
10 0 1
10 1 1
0 1 1
10 10 1
0 10 1
0 6 0
10 6 0
10 6 1
0 6 1
10 6 10
0 6 10
0 0 8
10 0 8
10 1 8
0 1 8
10 6 8
0 6 8
10 10 8
0 10 8
0 4 8
10 4 8
10 4 1
0 4 1
0 4 0
10 4 0
0 4 10
10 4 10
10 4 4
0 4 4
0 6 4
10 6 4
10 1 4
0 1 4
0 0 4
10 0 4
10 10 4
0 10 4
1 0 10
1 1 10
1 1 8
1 0 8
1 0 0
1 1 0
1 1 1
1 0 1
1 6 0
1 6 1
1 10 1
1 10 0
1 6 4
1 4 4
1 4 1
1 6 8
1 4 8
1 10 10
1 6 10
1 10 8
1 4 0
1 4 10
1 1 4
1 0 4
1 10 4

CELLS 32 288
8 50 51 52 53 7 10 26 25 
8 54 55 56 57 3 11 14 13 
8 0 8 15 12 54 55 56 57 
8 4 9 27 24 50 51 52 53 
8 18 21 17 1 58 59 60 61 
8 58 59 60 61 19 20 16 2 
8 42 41 35 21 62 63 64 59 
8 62 63 64 59 43 40 34 20 
8 29 32 41 42 65 66 63 62 
8 65 66 63 62 28 33 40 43 
8 5 23 29 31 67 68 65 69 
8 67 68 65 69 6 22 28 30 
8 8 15 35 36 55 56 64 70 
8 55 56 64 70 11 14 34 37 
8 36 35 21 18 70 64 59 58 
8 70 64 59 58 37 34 20 19 
8 9 27 32 38 51 52 66 71 
8 51 52 66 71 10 26 33 39 
8 38 32 29 23 71 66 65 68 
8 71 66 65 68 39 33 28 22 
8 27 32 41 45 52 66 63 72 
8 52 66 63 72 26 33 40 44 
8 45 41 35 15 72 63 64 56 
8 72 63 64 56 44 40 34 14 
8 24 27 45 46 53 52 72 73 
8 53 52 72 73 25 26 44 47 
8 46 45 15 12 73 72 56 57 
8 73 72 56 57 47 44 14 13 
8 29 31 49 42 65 69 74 62 
8 65 69 74 62 28 30 48 43 
8 42 49 17 21 62 74 60 59 
8 62 74 60 59 43 48 16 20 

CELL_TYPES 32
12 
12 
12 
12 
12 
12 
12 
12 
12 
12 
12 
12 
12 
12 
12 
12 
12 
12 
12 
12 
12 
12 
12 
12 
12 
12 
12 
12 
12 
12 
12 
12 
POINT_DATA 75
SCALARS GMDS_ID int 1
LOOKUP_TABLE default
0 1 2 3 4 5 6 7 8 9 10 11 12 13 14 15 16 17 18 19 20 21 22 23 24 25 26 27 28 29 30 31 32 33 34 35 36 37 38 39 40 41 42 43 44 45 46 47 48 49 50 51 52 53 54 55 56 57 58 59 60 61 62 63 64 65 66 67 68 69 70 71 72 73 74 
SCALARS geom_link_dim int 1
LOOKUP_TABLE default
1 1 1 1 1 1 1 1 2 2 2 2 2 2 3 3 2 2 2 2 3 3 2 2 2 2 3 3 3 3 2 2 3 3 3 3 2 2 2 2 3 3 3 3 3 3 2 2 2 2 2 3 0 3 2 3 0 3 3 0 3 2 0 0 0 0 0 2 3 3 3 3 0 3 3 
SCALARS geom_link_id int 1
LOOKUP_TABLE default
10 12 16 13 9 11 15 14 19 29 26 31 21 33 13 10 27 32 19 31 13 10 26 29 21 33 13 10 13 10 27 32 10 13 13 10 19 31 29 26 13 10 10 13 13 10 21 33 27 32 28 18 -1 12 20 11 -1 12 11 -1 17 30 -1 -1 -1 -1 -1 25 18 17 11 18 -1 12 17 


CELL_DATA 32
SCALARS GMDS_ID int 1
LOOKUP_TABLE default
4 6 7 11 20 21 22 23 24 25 26 27 28 29 30 31 32 33 34 35 36 37 38 39 40 41 42 43 44 45 46 47 

SCALARS is_in int 1
LOOKUP_TABLE default
1 1 1 1 1 1 1 1 1 1 1 1 1 1 1 1 1 1 1 1 1 1 1 1 1 1 1 1 1 1 1 1 

SCALARS geom_link_dim int 1
LOOKUP_TABLE default
0 0 0 0 0 0 0 0 0 0 0 0 0 0 0 0 0 0 0 0 0 0 0 0 0 0 0 0 0 0 0 0 

SCALARS geom_link_id int 1
LOOKUP_TABLE default
-1 -1 -1 -1 -1 -1 -1 -1 -1 -1 -1 -1 -1 -1 -1 -1 -1 -1 -1 -1 -1 -1 -1 -1 -1 -1 -1 -1 -1 -1 -1 -1 

