# vtk DataFile Version 3.0
Generated by GMDS VTK Writer

ASCII
DATASET UNSTRUCTURED_GRID
POINTS 150 float
0 0 0
0 10 0
10 10 0
10 0 0
0 0 10
0 10 10
10 10 10
10 0 10
0 4 0
0 4 10
10 4 10
10 4 0
1 0 0
1 0 10
1 4 10
1 4 0
1 10 10
1 10 0
4 0 0
4 0 10
4 4 10
4 4 0
4 10 10
4 10 0
1 0 6
1 4 6
0 4 6
0 0 6
4 0 6
4 4 6
10 0 6
10 4 6
1 10 6
0 10 6
10 10 6
4 10 6
0 1 10
1 1 10
1 1 6
0 1 6
1 1 0
0 1 0
4 1 10
4 1 6
4 1 0
10 1 10
10 1 6
10 1 0
0 1 4
1 1 4
1 4 4
0 4 4
0 0 4
1 0 4
1 10 4
0 10 4
10 10 4
10 4 4
4 4 4
4 10 4
4 0 4
4 1 4
10 0 4
10 1 4
6 10 10
6 4 10
6 4 6
6 10 6
6 0 10
6 0 6
6 1 6
6 1 10
6 10 0
6 4 0
6 4 4
6 10 4
6 0 0
6 1 0
6 1 4
6 0 4
0 8 10
1 8 10
1 8 6
0 8 6
0 8 4
1 8 4
0 8 0
1 8 0
4 8 10
4 8 6
6 8 10
6 8 6
10 8 10
10 8 6
4 8 0
4 8 4
10 8 0
10 8 4
6 8 4
6 8 0
0 1 1
1 1 1
1 4 1
0 4 1
0 0 1
1 0 1
4 0 1
4 1 1
4 4 1
0 8 1
1 8 1
1 10 1
0 10 1
10 0 1
10 1 1
6 1 1
6 0 1
10 4 1
6 4 1
4 8 1
4 10 1
6 8 1
10 8 1
6 10 1
10 10 1
1 0 8
4 0 8
4 1 8
1 1 8
6 4 8
6 1 8
4 4 8
10 4 8
10 1 8
1 4 8
4 8 8
1 8 8
0 1 8
0 4 8
0 0 8
6 0 8
10 0 8
0 8 8
1 10 8
0 10 8
4 10 8
6 8 8
6 10 8
10 8 8
10 10 8

CELLS 80 720
8 109 110 111 112 84 85 54 55 
8 100 101 102 103 48 49 50 51 
8 8 15 87 86 103 102 110 109 
8 0 12 40 41 104 105 101 100 
8 52 53 49 48 27 24 38 39 
8 7 45 71 68 141 133 130 140 
8 48 49 50 51 39 38 25 26 
8 141 133 130 140 30 46 70 69 
8 103 102 110 109 51 50 85 84 
8 104 105 101 100 52 53 49 48 
8 86 87 17 1 109 110 111 112 
8 101 107 108 102 49 61 58 50 
8 40 44 21 15 101 107 108 102 
8 139 125 128 137 27 24 38 39 
8 4 13 37 36 139 125 128 137 
8 105 106 107 101 53 60 61 49 
8 12 18 44 40 105 106 107 101 
8 140 130 127 126 69 70 43 28 
8 53 60 61 49 24 28 43 38 
8 68 71 42 19 140 130 127 126 
8 49 61 58 50 38 43 29 25 
8 84 85 82 83 55 54 32 33 
8 51 50 25 26 84 85 82 83 
8 41 40 15 8 100 101 102 103 
8 137 128 134 138 39 38 25 26 
8 36 37 14 9 137 128 134 138 
8 62 63 46 30 79 78 70 69 
8 79 78 70 69 60 61 43 28 
8 134 131 135 136 25 29 89 82 
8 14 20 88 81 134 131 135 136 
8 57 63 46 31 74 78 70 66 
8 74 78 70 66 58 61 43 29 
8 132 133 130 129 31 46 70 66 
8 10 45 71 65 132 133 130 129 
8 50 58 29 25 85 95 89 82 
8 85 95 89 82 54 59 35 32 
8 129 130 127 131 66 70 43 29 
8 65 71 42 20 129 130 127 131 
8 125 126 127 128 24 28 43 38 
8 13 19 42 37 125 126 127 128 
8 31 57 74 66 93 97 98 91 
8 93 97 98 91 34 56 75 67 
8 66 74 58 29 91 98 95 89 
8 91 98 95 89 67 75 59 35 
8 3 47 77 76 113 114 115 116 
8 113 114 115 116 62 63 78 79 
8 76 77 44 18 116 115 107 106 
8 116 115 107 106 79 78 61 60 
8 11 47 77 73 117 114 115 118 
8 117 114 115 118 57 63 78 74 
8 73 77 44 21 118 115 107 108 
8 118 115 107 108 74 78 61 58 
8 15 21 94 87 102 108 119 110 
8 102 108 119 110 50 58 95 85 
8 87 94 23 17 110 119 120 111 
8 110 119 120 111 85 95 59 54 
8 11 73 99 96 117 118 121 122 
8 117 118 121 122 57 74 98 97 
8 96 99 72 2 122 121 123 124 
8 122 121 123 124 97 98 75 56 
8 21 73 99 94 108 118 121 119 
8 108 118 121 119 58 74 98 95 
8 94 99 72 23 119 121 123 120 
8 119 121 123 120 95 98 75 59 
8 37 42 20 14 128 127 131 134 
8 128 127 131 134 38 43 29 25 
8 80 81 16 5 142 136 143 144 
8 142 136 143 144 83 82 32 33 
8 9 14 81 80 138 134 136 142 
8 138 134 136 142 26 25 82 83 
8 81 88 22 16 136 135 145 143 
8 136 135 145 143 82 89 35 32 
8 20 65 90 88 131 129 146 135 
8 131 129 146 135 29 66 91 89 
8 88 90 64 22 135 146 147 145 
8 135 146 147 145 89 91 67 35 
8 10 65 90 92 132 129 146 148 
8 132 129 146 148 31 66 91 93 
8 92 90 64 6 148 146 147 149 
8 148 146 147 149 93 91 67 34 

CELL_TYPES 80
12 
12 
12 
12 
12 
12 
12 
12 
12 
12 
12 
12 
12 
12 
12 
12 
12 
12 
12 
12 
12 
12 
12 
12 
12 
12 
12 
12 
12 
12 
12 
12 
12 
12 
12 
12 
12 
12 
12 
12 
12 
12 
12 
12 
12 
12 
12 
12 
12 
12 
12 
12 
12 
12 
12 
12 
12 
12 
12 
12 
12 
12 
12 
12 
12 
12 
12 
12 
12 
12 
12 
12 
12 
12 
12 
12 
12 
12 
12 
12 
POINT_DATA 150
SCALARS GMDS_ID int 1
LOOKUP_TABLE default
0 1 2 3 4 5 6 7 8 9 10 11 12 13 14 15 16 17 18 19 20 21 22 23 24 25 26 27 28 29 30 31 32 33 34 35 36 37 38 39 40 41 42 43 44 45 46 47 48 49 50 51 52 53 54 55 56 57 58 59 60 61 62 63 64 65 66 67 68 69 70 71 72 73 74 75 76 77 78 79 80 81 82 83 84 85 86 87 88 89 90 91 92 93 94 95 96 97 98 99 100 101 102 103 104 105 106 107 108 109 110 111 112 113 114 115 116 117 118 119 120 121 122 123 124 125 126 127 128 129 130 131 132 133 134 135 136 137 138 139 140 141 142 143 144 145 146 147 148 149 
SCALARS geom_link_dim int 1
LOOKUP_TABLE default
1 1 1 1 1 1 1 1 2 2 2 2 2 2 3 3 2 2 2 2 3 3 2 2 3 0 3 2 3 0 2 3 3 2 2 3 2 3 0 3 3 2 3 0 3 2 3 2 3 0 0 3 2 3 3 2 2 3 0 3 3 0 2 3 2 3 0 3 2 3 0 3 2 3 0 3 2 3 0 3 2 3 0 3 3 0 2 3 3 0 3 0 2 3 3 0 2 3 0 3 3 0 0 3 2 3 3 0 0 3 0 3 2 2 3 0 3 3 0 0 3 0 3 3 2 3 3 0 0 0 0 0 3 3 0 0 0 3 3 2 3 2 3 3 2 3 0 3 3 2 
SCALARS geom_link_id int 1
LOOKUP_TABLE default
10 12 16 13 9 11 15 14 19 29 26 31 20 28 18 11 25 30 20 28 18 11 25 30 12 0 10 21 12 0 33 13 17 32 27 17 29 18 0 10 11 19 18 0 11 26 13 31 10 0 0 10 21 12 17 32 27 13 0 17 12 0 33 13 25 18 0 17 28 12 0 18 30 11 0 17 20 11 0 12 29 18 0 10 10 0 19 11 18 0 18 0 26 13 11 0 31 13 0 11 10 0 0 10 21 12 12 0 0 10 0 17 32 33 13 0 12 13 0 0 17 0 13 17 27 12 12 -1 -1 -1 -1 -1 13 13 -1 -1 -1 10 10 21 12 33 10 17 32 17 -1 17 13 27 


CELL_DATA 80
SCALARS GMDS_ID int 1
LOOKUP_TABLE default
0 2 4 5 8 9 10 11 12 13 16 22 23 24 25 26 27 28 29 30 31 32 33 36 37 38 39 40 41 42 43 44 48 49 50 51 52 53 54 55 56 57 58 59 60 61 62 63 64 65 66 67 68 69 70 71 72 73 74 75 76 77 78 79 80 81 82 83 84 85 86 87 88 89 90 91 92 93 94 95 

SCALARS is_in int 1
LOOKUP_TABLE default
1 1 1 1 1 1 1 1 1 1 1 0 1 1 1 1 1 1 1 1 1 1 1 1 1 1 1 1 1 1 1 1 1 1 1 1 1 1 1 1 1 1 1 1 1 1 1 1 1 1 1 1 1 1 1 1 1 1 1 1 1 1 1 1 1 1 1 1 1 1 1 1 1 1 1 1 1 0 1 1 

SCALARS geom_link_dim int 1
LOOKUP_TABLE default
0 0 0 0 0 0 0 0 0 0 0 0 0 0 0 0 0 0 0 0 0 0 0 0 0 0 0 0 0 0 0 0 0 0 0 0 0 0 0 0 0 0 0 0 0 0 0 0 0 0 0 0 0 0 0 0 0 0 0 0 0 0 0 0 0 0 0 0 0 0 0 0 0 0 0 0 0 0 0 0 

SCALARS geom_link_id int 1
LOOKUP_TABLE default
0 0 0 0 0 -1 0 -1 0 0 0 0 0 -1 -1 0 0 -1 0 -1 0 0 0 0 -1 -1 0 0 -1 -1 0 0 -1 -1 0 0 -1 -1 -1 -1 0 0 0 0 0 0 0 0 0 0 0 0 0 0 0 0 0 0 0 0 0 0 0 0 -1 -1 -1 -1 -1 -1 -1 -1 -1 -1 -1 -1 -1 -1 -1 -1 

