# vtk DataFile Version 3.0
Generated by GMDS VTK Writer

ASCII
DATASET UNSTRUCTURED_GRID
POINTS 216 float
0 0 0
0 10 0
10 10 0
10 0 0
0 0 10
0 10 10
10 10 10
10 0 10
0 4 0
0 4 10
10 4 10
10 4 0
1 0 0
1 0 10
1 4 10
1 4 0
1 10 10
1 10 0
4 0 0
4 0 10
4 4 10
4 4 0
4 10 10
4 10 0
1 0 6
1 4 6
0 4 6
0 0 6
4 0 6
4 4 6
10 0 6
10 4 6
1 10 6
0 10 6
10 10 6
4 10 6
0 1 10
1 1 10
1 1 6
0 1 6
1 1 0
0 1 0
4 1 10
4 1 6
4 1 0
10 1 10
10 1 6
10 1 0
0 1 4
1 1 4
1 4 4
0 4 4
0 0 4
1 0 4
1 10 4
0 10 4
10 10 4
10 4 4
4 4 4
4 10 4
4 0 4
4 1 4
10 0 4
10 1 4
6 10 10
6 4 10
6 4 6
6 10 6
6 0 10
6 0 6
6 1 6
6 1 10
6 10 0
6 4 0
6 4 4
6 10 4
6 0 0
6 1 0
6 1 4
6 0 4
0 8 10
1 8 10
1 8 6
0 8 6
0 8 4
1 8 4
0 8 0
1 8 0
4 8 10
4 8 6
6 8 10
6 8 6
10 8 10
10 8 6
4 8 0
4 8 4
10 8 0
10 8 4
6 8 4
6 8 0
0 1 1
1 1 1
1 4 1
0 4 1
0 0 1
1 0 1
4 0 1
4 1 1
4 4 1
0 8 1
1 8 1
1 10 1
0 10 1
10 0 1
10 1 1
6 1 1
6 0 1
10 4 1
6 4 1
4 8 1
4 10 1
6 8 1
10 8 1
6 10 1
10 10 1
1 0 8
4 0 8
4 1 8
1 1 8
6 4 8
6 1 8
4 4 8
10 4 8
10 1 8
1 4 8
4 8 8
1 8 8
0 1 8
0 4 8
0 0 8
6 0 8
10 0 8
0 8 8
1 10 8
0 10 8
4 10 8
6 8 8
6 10 8
10 8 8
10 10 8
0 6 8
1 6 8
1 6 6
0 6 6
0 6 10
1 6 10
1 6 1
4 6 1
4 6 4
1 6 4
1 6 0
4 6 0
0 6 4
4 6 8
4 6 6
4 6 10
0 6 1
10 6 8
6 6 8
6 6 6
10 6 6
10 6 10
6 6 10
0 6 0
10 6 4
6 6 4
10 6 0
6 6 0
6 6 1
10 6 1
8 0 4
8 1 4
8 1 6
8 0 6
8 4 8
8 1 8
8 4 6
8 4 4
8 4 10
8 1 10
8 8 6
8 8 4
8 10 4
8 10 6
8 0 0
8 1 0
8 1 1
8 0 1
8 4 0
8 4 1
8 10 0
8 8 0
8 8 1
8 10 1
8 0 10
8 0 8
8 10 10
8 8 10
8 8 8
8 10 8
8 6 8
8 6 6
8 6 10
8 6 4
8 6 1
8 6 0

CELLS 124 1116
8 109 110 111 112 84 85 54 55 
8 103 102 50 51 166 156 159 162 
8 100 101 102 103 48 49 50 51 
8 51 50 25 26 162 159 152 153 
8 93 97 56 34 190 191 192 193 
8 0 12 40 41 104 105 101 100 
8 50 58 29 25 159 158 164 152 
8 151 163 164 152 136 135 89 82 
8 52 53 49 48 27 24 38 39 
8 48 49 50 51 39 38 25 26 
8 194 195 196 197 76 77 115 116 
8 104 105 101 100 52 53 49 48 
8 102 108 58 50 156 157 158 159 
8 155 165 163 151 81 88 135 136 
8 86 87 17 1 109 110 111 112 
8 14 20 131 134 155 165 163 151 
8 134 131 29 25 151 163 164 152 
8 162 159 152 153 84 85 82 83 
8 156 157 158 159 110 119 95 85 
8 159 158 164 152 85 95 89 82 
8 138 134 25 26 150 151 152 153 
8 40 44 21 15 101 107 108 102 
8 139 125 128 137 27 24 38 39 
8 4 13 37 36 139 125 128 137 
8 105 106 107 101 53 60 61 49 
8 12 18 44 40 105 106 107 101 
8 140 130 127 126 69 70 43 28 
8 53 60 61 49 24 28 43 38 
8 68 71 42 19 140 130 127 126 
8 49 61 58 50 38 43 29 25 
8 84 85 82 83 55 54 32 33 
8 198 195 196 199 73 77 115 118 
8 160 161 157 156 87 94 119 110 
8 15 21 108 102 160 161 157 156 
8 41 40 15 8 100 101 102 103 
8 137 128 134 138 39 38 25 26 
8 36 37 14 9 137 128 134 138 
8 79 78 70 69 60 61 43 28 
8 11 47 114 117 198 195 196 199 
8 113 114 63 62 197 196 181 180 
8 74 78 70 66 58 61 43 29 
8 154 155 151 150 80 81 136 142 
8 9 14 134 138 154 155 151 150 
8 150 151 152 153 142 136 82 83 
8 197 196 181 180 116 115 78 79 
8 85 95 89 82 54 59 35 32 
8 129 130 127 131 66 70 43 29 
8 65 71 42 20 129 130 127 131 
8 125 126 127 128 24 28 43 38 
8 13 19 42 37 125 126 127 128 
8 187 181 182 186 74 78 70 66 
8 57 63 46 31 187 181 182 186 
8 91 98 95 89 67 75 59 35 
8 76 77 44 18 116 115 107 106 
8 116 115 107 106 79 78 61 60 
8 73 77 44 21 118 115 107 108 
8 118 115 107 108 74 78 61 58 
8 117 114 63 57 199 196 181 187 
8 199 196 181 187 118 115 78 74 
8 87 94 23 17 110 119 120 111 
8 110 119 120 111 85 95 59 54 
8 184 185 182 186 129 130 70 66 
8 132 133 46 31 184 185 182 186 
8 180 181 182 183 79 78 70 69 
8 62 63 46 30 180 181 182 183 
8 94 99 72 23 119 121 123 120 
8 119 121 123 120 95 98 75 59 
8 37 42 20 14 128 127 131 134 
8 128 127 131 134 38 43 29 25 
8 80 81 16 5 142 136 143 144 
8 142 136 143 144 83 82 32 33 
8 2 96 122 124 200 201 202 203 
8 200 201 202 203 72 99 121 123 
8 81 88 22 16 136 135 145 143 
8 136 135 145 143 82 89 35 32 
8 10 45 133 132 188 189 185 184 
8 188 189 185 184 65 71 130 129 
8 88 90 64 22 135 146 147 145 
8 135 146 147 145 89 91 67 35 
8 190 191 192 193 91 98 75 67 
8 3 47 114 113 194 195 196 197 
8 166 156 159 162 109 110 85 84 
8 8 15 102 103 173 160 156 166 
8 173 160 156 166 86 87 110 109 
8 131 129 66 29 163 168 169 164 
8 163 168 169 164 135 146 91 89 
8 20 65 129 131 165 172 168 163 
8 165 172 168 163 88 90 146 135 
8 66 74 58 29 169 175 158 164 
8 169 175 158 164 91 98 95 89 
8 21 73 118 108 161 177 178 157 
8 161 177 178 157 94 99 121 119 
8 108 118 74 58 157 178 175 158 
8 157 178 175 158 119 121 98 95 
8 124 122 97 56 203 202 191 192 
8 203 202 191 192 123 121 98 75 
8 7 45 133 141 204 189 185 205 
8 204 189 185 205 68 71 130 140 
8 141 133 46 30 205 185 182 183 
8 205 185 182 183 140 130 70 69 
8 6 92 148 149 206 207 208 209 
8 206 207 208 209 64 90 146 147 
8 149 148 93 34 209 208 190 193 
8 209 208 190 193 147 146 91 67 
8 31 132 167 170 186 184 210 211 
8 186 184 210 211 66 129 168 169 
8 170 167 148 93 211 210 208 190 
8 211 210 208 190 169 168 146 91 
8 10 132 167 171 188 184 210 212 
8 188 184 210 212 65 129 168 172 
8 171 167 148 92 212 210 208 207 
8 212 210 208 207 172 168 146 90 
8 31 57 174 170 186 187 213 211 
8 186 187 213 211 66 74 175 169 
8 170 174 97 93 211 213 191 190 
8 211 213 191 190 169 175 98 91 
8 11 117 179 176 198 199 214 215 
8 198 199 214 215 73 118 178 177 
8 176 179 122 96 215 214 202 201 
8 215 214 202 201 177 178 121 99 
8 57 117 179 174 187 199 214 213 
8 187 199 214 213 74 118 178 175 
8 174 179 122 97 213 214 202 191 
8 213 214 202 191 175 178 121 98 

CELL_TYPES 124
12 
12 
12 
12 
12 
12 
12 
12 
12 
12 
12 
12 
12 
12 
12 
12 
12 
12 
12 
12 
12 
12 
12 
12 
12 
12 
12 
12 
12 
12 
12 
12 
12 
12 
12 
12 
12 
12 
12 
12 
12 
12 
12 
12 
12 
12 
12 
12 
12 
12 
12 
12 
12 
12 
12 
12 
12 
12 
12 
12 
12 
12 
12 
12 
12 
12 
12 
12 
12 
12 
12 
12 
12 
12 
12 
12 
12 
12 
12 
12 
12 
12 
12 
12 
12 
12 
12 
12 
12 
12 
12 
12 
12 
12 
12 
12 
12 
12 
12 
12 
12 
12 
12 
12 
12 
12 
12 
12 
12 
12 
12 
12 
12 
12 
12 
12 
12 
12 
12 
12 
12 
12 
12 
12 
POINT_DATA 216
SCALARS GMDS_ID int 1
LOOKUP_TABLE default
0 1 2 3 4 5 6 7 8 9 10 11 12 13 14 15 16 17 18 19 20 21 22 23 24 25 26 27 28 29 30 31 32 33 34 35 36 37 38 39 40 41 42 43 44 45 46 47 48 49 50 51 52 53 54 55 56 57 58 59 60 61 62 63 64 65 66 67 68 69 70 71 72 73 74 75 76 77 78 79 80 81 82 83 84 85 86 87 88 89 90 91 92 93 94 95 96 97 98 99 100 101 102 103 104 105 106 107 108 109 110 111 112 113 114 115 116 117 118 119 120 121 122 123 124 125 126 127 128 129 130 131 132 133 134 135 136 137 138 139 140 141 142 143 144 145 146 147 148 149 150 151 152 153 154 155 156 157 158 159 160 161 162 163 164 165 166 167 168 169 170 171 172 173 174 175 176 177 178 179 180 181 182 183 184 185 186 187 188 189 190 191 192 193 194 195 196 197 198 199 200 201 202 203 204 205 206 207 208 209 210 211 212 213 214 215 
SCALARS geom_link_dim int 1
LOOKUP_TABLE default
1 1 1 1 1 1 1 1 2 2 2 2 2 2 3 3 2 2 2 2 3 3 2 2 3 0 3 2 3 0 2 3 3 2 2 3 2 3 0 3 3 2 3 0 3 2 3 2 3 1 1 3 2 3 3 2 2 3 1 3 3 1 2 3 2 3 0 3 2 3 0 3 2 3 0 3 2 3 0 3 2 3 0 3 3 0 2 3 3 0 3 0 2 3 3 0 2 3 0 3 3 1 1 3 2 3 3 1 1 3 0 3 2 2 3 0 3 3 0 0 3 0 3 3 2 3 3 0 0 0 0 0 3 3 0 0 0 3 3 2 3 2 3 3 2 3 0 3 3 2 3 0 0 3 2 3 0 0 0 0 3 3 3 0 0 3 3 3 0 0 3 2 3 2 3 0 2 3 0 3 3 0 0 3 0 0 0 0 3 3 0 0 3 3 2 3 0 3 3 0 2 3 0 3 2 3 2 3 0 3 0 0 3 0 0 3 
SCALARS geom_link_id int 1
LOOKUP_TABLE default
10 12 16 13 9 11 15 14 19 29 26 31 20 28 18 11 25 30 20 28 18 11 25 30 12 0 10 21 12 0 33 13 17 32 27 17 29 18 0 10 11 19 18 0 11 26 13 31 10 17 19 10 21 12 17 32 27 13 23 17 12 22 33 13 25 18 0 17 28 12 0 18 30 11 0 17 20 11 0 12 29 18 0 10 10 0 19 11 18 0 18 0 26 13 11 0 31 13 0 11 10 18 20 10 21 12 12 21 24 10 0 17 32 33 13 0 12 13 0 0 17 0 13 17 27 12 12 0 0 0 0 0 13 13 0 0 0 10 10 21 12 33 10 17 32 17 0 17 13 27 10 0 0 10 29 18 0 0 0 0 11 11 10 0 0 18 10 13 0 0 13 26 18 19 13 0 31 11 0 13 12 -1 -1 12 -1 -1 -1 -1 18 18 -1 -1 17 17 20 11 -1 12 11 -1 30 11 -1 17 28 12 25 18 -1 17 -1 -1 18 -1 -1 11 


CELL_DATA 124
SCALARS GMDS_ID int 1
LOOKUP_TABLE default
0 1 2 3 4 5 6 7 8 10 12 13 14 15 16 17 18 19 20 21 22 23 24 25 26 27 28 29 30 31 32 33 34 35 36 37 38 40 41 42 44 45 46 47 50 51 52 53 54 55 56 58 59 62 63 66 67 68 69 70 71 72 73 76 77 78 79 80 81 82 83 84 85 86 87 88 89 90 91 92 93 96 101 102 103 104 105 106 109 110 115 116 117 118 119 120 121 122 123 124 125 126 127 128 129 130 131 132 133 134 135 136 137 138 139 140 141 142 143 144 145 146 147 148 

SCALARS is_in int 1
LOOKUP_TABLE default
1 1 1 1 1 1 1 1 1 1 1 1 1 1 1 1 1 1 1 1 1 1 1 1 1 1 1 1 1 1 1 1 1 1 1 1 1 1 1 1 1 1 1 1 1 1 1 1 1 1 1 1 1 1 1 1 1 1 1 1 1 1 1 1 1 1 1 1 1 1 1 1 1 1 1 1 1 1 1 1 1 1 1 1 1 1 1 1 1 1 1 1 1 1 1 1 1 1 1 1 1 1 1 1 1 1 1 0 1 1 1 1 1 1 1 1 1 1 1 1 1 1 1 1 

SCALARS geom_link_dim int 1
LOOKUP_TABLE default
0 0 0 0 0 0 0 0 0 0 0 0 0 0 0 0 0 0 0 0 0 0 0 0 0 0 0 0 0 0 0 0 0 0 0 0 0 0 0 0 0 0 0 0 0 0 0 0 0 0 0 0 0 0 0 0 0 0 0 0 0 0 0 0 0 0 0 0 0 0 0 0 0 0 0 0 0 0 0 0 0 0 0 0 0 0 0 0 0 0 0 0 0 0 0 0 0 0 0 0 0 0 0 0 0 0 0 0 0 0 0 0 0 0 0 0 0 0 0 0 0 0 0 0 

SCALARS geom_link_id int 1
LOOKUP_TABLE default
0 0 0 0 -1 0 0 0 0 0 -1 0 0 0 0 0 0 0 0 0 0 0 0 0 0 0 0 0 0 0 0 -1 0 0 0 0 0 0 -1 -1 0 0 0 0 -1 0 0 0 0 0 -1 -1 0 0 0 0 0 -1 -1 0 0 -1 -1 -1 -1 0 0 0 0 0 0 -1 -1 0 0 -1 -1 0 0 -1 -1 0 0 0 0 0 0 0 0 0 0 0 0 0 -1 -1 -1 -1 -1 -1 -1 -1 -1 -1 -1 -1 -1 -1 -1 -1 -1 -1 -1 -1 -1 -1 -1 -1 -1 -1 -1 -1 -1 -1 

