# vtk DataFile Version 3.0
Generated by GMDS VTK Writer

ASCII
DATASET UNSTRUCTURED_GRID
POINTS 36 float
-5 -5 -5
-5 10 -5
10 10 -5
10 -5 -5
-5 -5 10
-5 10 10
10 10 10
10 -5 10
-5 5 -5
-5 5 10
10 5 10
10 5 -5
-5 -5 -8.88178419700125e-16
10 -5 -8.88178419700125e-16
10 5 0
-5 5 0
10 10 -8.88178419700125e-16
-5 10 -8.88178419700125e-16
-8.88178419700125e-16 -5 -5
0 5 -5
-8.88178419700125e-16 5 0
0 -5 0
0 5 10
-8.88178419700125e-16 -5 10
-8.88178419700125e-16 10 -5
0 10 0
-8.88178419700125e-16 10 10
-5 -4.44089209850063e-16 -5
-5 0 0
-4.44089209850063e-16 0 0
0 0 -5
10 0 0
10 -4.44089209850063e-16 -5
-5 -4.44089209850063e-16 10
0 0 10
10 -4.44089209850063e-16 10

CELLS 12 108
8 30 29 31 32 19 20 14 11 
8 18 21 13 3 30 29 31 32 
8 27 28 29 30 8 15 20 19 
8 0 12 21 18 27 28 29 30 
8 1 8 15 17 24 19 20 25 
8 24 19 20 25 2 11 14 16 
8 17 15 9 5 25 20 22 26 
8 25 20 22 26 16 14 10 6 
8 4 12 21 23 33 28 29 34 
8 33 28 29 34 9 15 20 22 
8 23 21 13 7 34 29 31 35 
8 34 29 31 35 22 20 14 10 

CELL_TYPES 12
12 
12 
12 
12 
12 
12 
12 
12 
12 
12 
12 
12 
POINT_DATA 36
SCALARS GMDS_ID int 1
LOOKUP_TABLE default
0 1 2 3 4 5 6 7 8 9 10 11 12 13 14 15 16 17 18 19 20 21 22 23 24 25 26 27 28 29 30 31 32 33 34 35 
SCALARS geom_link_dim int 1
LOOKUP_TABLE default
0 0 0 0 0 0 0 0 0 0 0 0 0 0 1 1 0 0 0 1 0 1 1 0 0 1 0 0 1 0 1 1 0 0 1 0 
SCALARS geom_link_id int 1
LOOKUP_TABLE default
-1 -1 -1 -1 -1 -1 -1 -1 -1 -1 -1 -1 -1 -1 21 5 -1 -1 -1 18 0 28 16 -1 -1 4 -1 -1 11 -1 19 29 -1 -1 20 -1 


CELL_DATA 12
SCALARS GMDS_ID int 1
LOOKUP_TABLE default
0 3 4 5 8 9 10 11 12 13 14 15 

SCALARS is_in int 1
LOOKUP_TABLE default
0 0 0 0 0 0 0 0 0 0 0 0 

SCALARS geom_link_dim int 1
LOOKUP_TABLE default
0 0 0 0 0 0 0 0 0 0 0 0 

SCALARS geom_link_id int 1
LOOKUP_TABLE default
-1 -1 -1 -1 0 0 0 0 -1 -1 -1 -1 

