# vtk DataFile Version 3.0
Generated by GMDS VTK Writer

ASCII
DATASET UNSTRUCTURED_GRID
POINTS 45 float
5 0 0
5 0 -5
10 10 -5
10 -5 10
-5 5 10
10 5 10
10 5 -5
-5 -5 -8.88178419700125e-16
10 5 0
-5 5 0
10 10 -8.88178419700125e-16
0 5 -5
0 5 0
0 -5 0
0 5 10
0 10 0
-5 0 0
0 0 0
0 0 -5
10 0 0
-5 -4.44089209850063e-16 10
0 0 10
10 -4.44089209850063e-16 10
-5 5 5
0 5 5
0 10 5
10 5 5
-5 -5 5
0 -5 5
0 0 5
-5 0 5
10 -5 5
10 0 5
5 5 0
5 5 -5
5 -5 0
5 5 5
5 10 5
5 10 0
5 5 10
5 10 -5
5 -5 10
5 0 10
5 0 5
5 -5 5

CELLS 12 108
8 18 17 12 11 1 0 33 34 
8 24 25 15 12 36 37 38 33 
8 27 28 29 30 7 13 17 16 
8 20 21 14 4 30 29 24 23 
8 30 29 24 23 16 17 12 9 
8 40 34 33 38 2 6 8 10 
8 41 42 43 44 3 22 32 31 
8 28 29 17 13 44 43 0 35 
8 14 21 29 24 39 42 43 36 
8 39 42 43 36 5 22 32 26 
8 24 29 17 12 36 43 0 33 
8 36 43 0 33 26 32 19 8 

CELL_TYPES 12
12 
12 
12 
12 
12 
12 
12 
12 
12 
12 
12 
12 
POINT_DATA 45
SCALARS GMDS_ID int 1
LOOKUP_TABLE default
0 1 2 7 9 10 11 12 14 15 16 19 20 21 22 25 28 29 30 31 33 34 35 37 38 39 40 42 43 44 45 46 47 48 49 51 52 53 54 55 57 58 59 60 61 
SCALARS geom_link_dim int 1
LOOKUP_TABLE default
1 1 0 0 0 0 0 0 1 1 0 1 1 1 1 1 1 1 1 1 0 1 0 1 1 1 1 0 1 1 1 0 1 1 1 1 1 1 1 1 0 0 1 1 1 
SCALARS geom_link_id int 1
LOOKUP_TABLE default
26 25 -1 -1 -1 -1 -1 -1 21 5 -1 18 1 28 16 4 11 12 19 29 -1 20 -1 6 2 3 22 -1 27 14 13 -1 30 10 17 31 8 7 9 15 -1 -1 24 23 32 


CELL_DATA 12
SCALARS GMDS_ID int 1
LOOKUP_TABLE default
8 13 17 18 19 25 27 28 30 31 32 33 

SCALARS is_in int 1
LOOKUP_TABLE default
1 1 0 0 1 0 0 1 1 0 1 1 

SCALARS geom_link_dim int 1
LOOKUP_TABLE default
0 0 0 0 0 0 0 0 0 0 0 0 

SCALARS geom_link_id int 1
LOOKUP_TABLE default
0 0 0 0 0 0 0 0 0 0 0 0 

