# vtk DataFile Version 3.0
Generated by GMDS VTK Writer

ASCII
DATASET UNSTRUCTURED_GRID
POINTS 32 float
10 0 0
-5 0 0
0 0 -5
0 0 0
0 -5 0
0 0 10
0 10 0
0 -5 5
0 0 5
10 0 5
-5 0 5
0 10 5
-5 5 0
0 5 0
0 5 -5
10 5 0
0 5 5
-5 5 5
0 5 10
10 5 5
5 0 5
5 -5 5
5 0 10
5 0 0
5 -5 0
5 0 -5
5 5 -5
5 5 0
5 10 0
5 10 5
5 5 5
5 5 10

CELLS 7 63
8 3 4 7 8 23 24 21 20 
8 12 13 16 17 1 3 8 10 
8 14 13 3 2 26 27 23 25 
8 6 11 16 13 28 29 30 27 
8 13 16 8 3 27 30 20 23 
8 27 30 20 23 15 19 9 0 
8 18 16 8 5 31 30 20 22 

CELL_TYPES 7
12 
12 
12 
12 
12 
12 
12 
POINT_DATA 32
SCALARS GMDS_ID int 1
LOOKUP_TABLE default
14 15 19 20 21 22 25 27 28 29 32 34 37 38 39 40 42 43 44 46 48 49 51 52 53 55 56 57 59 60 61 63 
SCALARS geom_link_dim int 1
LOOKUP_TABLE default
1 1 1 1 1 1 1 1 1 1 1 1 1 1 1 1 1 1 1 1 1 1 1 1 1 1 1 1 1 1 1 1 
SCALARS geom_link_id int 1
LOOKUP_TABLE default
29 11 19 12 28 20 4 27 14 30 13 3 5 1 18 21 2 6 16 22 23 32 24 26 31 25 17 10 9 7 8 15 


CELL_DATA 7
SCALARS GMDS_ID int 1
LOOKUP_TABLE default
13 17 24 28 30 31 34 

SCALARS is_in int 1
LOOKUP_TABLE default
1 1 1 1 1 1 1 

SCALARS geom_link_dim int 1
LOOKUP_TABLE default
4 4 4 4 4 4 4 

SCALARS geom_link_id int 1
LOOKUP_TABLE default
1 1 1 1 1 1 1 

