# vtk DataFile Version 3.0
Generated by GMDS VTK Writer

ASCII
DATASET UNSTRUCTURED_GRID
POINTS 54 float
5 0 0
5 0 -5
10 10 -5
-5 -5 10
10 -5 10
-5 5 10
10 5 10
10 5 -5
-5 -5 -8.88178419700125e-16
10 -5 -8.88178419700125e-16
10 5 0
-5 5 0
10 10 -8.88178419700125e-16
-8.88178419700125e-16 -5 -5
0 5 -5
0 5 0
0 -5 0
0 5 10
-8.88178419700125e-16 -5 10
-8.88178419700125e-16 10 -5
0 10 0
-8.88178419700125e-16 10 10
-5 0 0
0 0 0
0 0 -5
10 0 0
-5 -4.44089209850063e-16 10
0 0 10
10 -4.44089209850063e-16 10
-5 5 5
0 5 5
0 10 5
10 5 5
10 10 5
-5 -5 5
0 -5 5
-2.22044604925031e-16 0 5
-5 0 5
10 -5 5
10 0 5
5 5 0
5 5 -5
5 -5 -5
5 -5 0
5 5 5
5 10 5
5 10 0
5 5 10
5 10 10
5 10 -5
5 -5 10
5 0 10
5 0 5
5 -5 5

CELLS 19 171
8 24 23 15 14 1 0 40 41 
8 17 21 31 30 47 48 45 44 
8 44 45 46 40 32 33 12 10 
8 30 31 20 15 44 45 46 40 
8 13 16 23 24 42 43 0 1 
8 3 18 27 26 34 35 36 37 
8 34 35 36 37 8 16 23 22 
8 26 27 17 5 37 36 30 29 
8 37 36 30 29 22 23 15 11 
8 19 14 15 20 49 41 40 46 
8 49 41 40 46 2 7 10 12 
8 18 27 36 35 50 51 52 53 
8 50 51 52 53 4 28 39 38 
8 35 36 23 16 53 52 0 43 
8 53 52 0 43 38 39 25 9 
8 17 27 36 30 47 51 52 44 
8 47 51 52 44 6 28 39 32 
8 30 36 23 15 44 52 0 40 
8 44 52 0 40 32 39 25 10 

CELL_TYPES 19
12 
12 
12 
12 
12 
12 
12 
12 
12 
12 
12 
12 
12 
12 
12 
12 
12 
12 
12 
POINT_DATA 54
SCALARS GMDS_ID int 1
LOOKUP_TABLE default
0 1 2 4 7 9 10 11 12 13 14 15 16 18 19 20 21 22 23 24 25 26 28 29 30 31 33 34 35 37 38 39 40 41 42 43 44 45 46 47 48 49 50 51 52 53 54 55 56 57 58 59 60 61 
SCALARS geom_link_dim int 1
LOOKUP_TABLE default
1 1 0 0 0 0 0 0 0 0 1 1 0 0 1 1 1 1 0 0 1 0 1 1 1 1 0 1 0 1 1 1 1 0 0 1 0 1 0 1 1 1 0 1 1 1 1 1 0 0 0 1 0 1 
SCALARS geom_link_id int 1
LOOKUP_TABLE default
26 25 -1 -1 -1 -1 -1 -1 -1 -1 21 5 -1 -1 18 1 28 16 -1 -1 4 -1 11 12 19 29 -1 20 -1 6 2 3 22 -1 -1 27 0 13 -1 30 10 17 -1 31 8 7 9 15 -1 -1 -1 24 0 32 


CELL_DATA 19
SCALARS GMDS_ID int 1
LOOKUP_TABLE default
8 11 12 13 15 16 17 18 19 24 25 26 27 28 29 30 31 32 33 

SCALARS is_in int 1
LOOKUP_TABLE default
1 0 0 1 0 0 0 0 1 0 0 0 0 1 0 1 0 1 1 

SCALARS geom_link_dim int 1
LOOKUP_TABLE default
0 0 0 0 0 0 0 0 0 0 0 0 0 0 0 0 0 0 0 

SCALARS geom_link_id int 1
LOOKUP_TABLE default
0 0 0 0 0 0 0 0 0 0 0 0 0 0 0 0 0 0 0 

