# vtk DataFile Version 3.0
Generated by GMDS VTK Writer

ASCII
DATASET UNSTRUCTURED_GRID
POINTS 57 float
5 0 0
5 0 -5
10 10 -5
10 -5 -5
-5 -5 10
10 10 10
10 -5 10
-5 5 10
10 5 10
10 5 -5
-5 -5 -8.88178419700125e-16
10 -5 -8.88178419700125e-16
10 5 0
-5 5 0
10 10 -8.88178419700125e-16
-8.88178419700125e-16 -5 -5
0 5 -5
0 5 0
0 -5 0
0 5 10
-8.88178419700125e-16 -5 10
-8.88178419700125e-16 10 -5
0 10 0
-8.88178419700125e-16 10 10
-5 0 0
0 0 0
0 0 -5
10 0 0
10 -4.44089209850063e-16 -5
-5 -4.44089209850063e-16 10
0 0 10
10 -4.44089209850063e-16 10
-5 5 5
0 5 5
0 10 5
10 5 5
10 10 5
-5 -5 5
0 -5 5
-2.22044604925031e-16 0 5
-5 0 5
10 -5 5
10 0 5
5 5 0
5 5 -5
5 -5 -5
5 -5 0
5 5 5
5 10 5
5 10 0
5 5 10
5 10 10
5 10 -5
5 -5 10
5 0 10
5 0 5
5 -5 5

CELLS 21 189
8 26 25 17 16 1 0 43 44 
8 50 51 48 47 8 5 36 35 
8 19 23 34 33 50 51 48 47 
8 47 48 49 43 35 36 14 12 
8 33 34 22 17 47 48 49 43 
8 45 46 0 1 3 11 27 28 
8 15 18 25 26 45 46 0 1 
8 4 20 30 29 37 38 39 40 
8 37 38 39 40 10 18 25 24 
8 29 30 19 7 40 39 33 32 
8 40 39 33 32 24 25 17 13 
8 21 16 17 22 52 44 43 49 
8 52 44 43 49 2 9 12 14 
8 20 30 39 38 53 54 55 56 
8 53 54 55 56 6 31 42 41 
8 38 39 25 18 56 55 0 46 
8 56 55 0 46 41 42 27 11 
8 19 30 39 33 50 54 55 47 
8 50 54 55 47 8 31 42 35 
8 33 39 25 17 47 55 0 43 
8 47 55 0 43 35 42 27 12 

CELL_TYPES 21
12 
12 
12 
12 
12 
12 
12 
12 
12 
12 
12 
12 
12 
12 
12 
12 
12 
12 
12 
12 
12 
POINT_DATA 57
SCALARS GMDS_ID int 1
LOOKUP_TABLE default
0 1 2 3 4 6 7 9 10 11 12 13 14 15 16 18 19 20 21 22 23 24 25 26 28 29 30 31 32 33 34 35 37 38 39 40 41 42 43 44 45 46 47 48 49 50 51 52 53 54 55 56 57 58 59 60 61 
SCALARS geom_link_dim int 1
LOOKUP_TABLE default
1 1 0 0 0 0 0 0 0 0 0 0 1 1 0 0 1 1 1 1 0 0 1 0 1 1 1 1 0 0 1 0 1 1 1 1 0 0 1 0 1 0 1 1 1 0 1 0 1 1 1 0 0 0 1 0 1 
SCALARS geom_link_id int 1
LOOKUP_TABLE default
26 25 -1 -1 -1 -1 -1 -1 -1 -1 -1 -1 21 5 -1 -1 18 1 28 16 -1 -1 4 -1 11 12 19 29 -1 -1 20 -1 6 2 3 22 -1 -1 27 0 13 -1 30 10 17 -1 31 0 7 9 15 -1 -1 -1 24 0 32 


CELL_DATA 21
SCALARS GMDS_ID int 1
LOOKUP_TABLE default
8 10 11 12 13 14 15 16 17 18 19 24 25 26 27 28 29 30 31 32 33 

SCALARS is_in int 1
LOOKUP_TABLE default
1 0 0 0 1 0 0 0 0 0 1 0 0 0 0 1 0 1 0 1 1 

SCALARS geom_link_dim int 1
LOOKUP_TABLE default
0 0 0 0 0 0 0 0 0 0 0 0 0 0 0 0 0 0 0 0 0 

SCALARS geom_link_id int 1
LOOKUP_TABLE default
0 0 0 0 0 0 0 0 0 0 0 0 0 0 0 0 0 0 0 0 0 

