# vtk DataFile Version 3.0
Generated by GMDS VTK Writer

ASCII
DATASET UNSTRUCTURED_GRID
POINTS 150 float
0 0 0
0 10 0
10 10 0
10 0 0
0 0 10
0 10 10
10 10 10
10 0 10
0 1 0
0 1 10
10 1 10
10 1 0
0 0 1
10 0 1
10 1 1
0 1 1
10 10 1
0 10 1
0 6 0
10 6 0
10 6 1
0 6 1
10 6 10
0 6 10
0 0 8
10 0 8
10 1 8
0 1 8
10 6 8
0 6 8
10 10 8
0 10 8
0 4 8
10 4 8
10 4 1
0 4 1
0 4 0
10 4 0
0 4 10
10 4 10
10 4 4
0 4 4
0 6 4
10 6 4
10 1 4
0 1 4
0 0 4
10 0 4
10 10 4
0 10 4
1 0 10
1 1 10
1 1 8
1 0 8
1 0 0
1 1 0
1 1 1
1 0 1
1 6 0
1 6 1
1 10 1
1 10 0
1 6 4
1 4 4
1 4 1
1 6 8
1 4 8
1 10 10
1 6 10
1 10 8
1 4 0
1 4 10
1 1 4
1 0 4
1 10 4
4 0 10
4 1 10
4 1 8
4 0 8
4 0 0
4 1 0
4 1 1
4 0 1
4 6 0
4 6 1
4 10 1
4 10 0
4 6 4
4 4 4
4 4 1
4 6 8
4 4 8
4 10 10
4 6 10
4 10 8
4 4 0
4 4 10
4 1 4
4 0 4
4 10 4
4 8 1
4 8 0
10 8 0
10 8 1
1 8 1
1 8 0
0 8 0
0 8 1
0 8 10
0 8 8
1 8 8
1 8 10
0 8 4
1 8 4
4 8 8
4 8 10
10 8 8
10 8 10
4 8 4
10 8 4
8 6 4
8 4 4
8 4 1
8 6 1
8 0 0
8 1 0
8 1 1
8 0 1
8 0 10
8 1 10
8 1 8
8 0 8
8 8 1
8 8 0
8 6 0
8 10 1
8 10 0
8 6 8
8 4 8
8 4 0
8 4 10
8 6 10
8 1 4
8 0 4
8 10 10
8 10 8
8 8 8
8 8 10
8 10 4
8 8 4

CELLS 79 711
8 70 64 59 58 95 89 84 83 
8 55 56 64 70 80 81 89 95 
8 0 8 15 12 54 55 56 57 
8 75 76 77 78 128 129 130 131 
8 137 138 121 120 28 33 40 43 
8 128 129 130 131 7 10 26 25 
8 4 9 27 24 50 51 52 53 
8 65 66 63 62 90 91 88 87 
8 62 63 64 59 87 88 89 84 
8 90 91 88 87 137 138 121 120 
8 54 55 56 57 79 80 81 82 
8 50 51 52 53 75 76 77 78 
8 135 136 133 132 16 2 102 103 
8 111 110 114 115 68 65 90 93 
8 42 41 35 21 62 63 64 59 
8 67 69 94 92 111 110 114 115 
8 29 32 41 42 65 66 63 62 
8 107 112 113 104 21 42 62 59 
8 85 86 101 100 135 136 133 132 
8 17 49 74 60 107 112 113 104 
8 8 15 35 36 55 56 64 70 
8 109 112 113 110 29 42 62 65 
8 36 35 21 18 70 64 59 58 
8 31 49 74 69 109 112 113 110 
8 9 27 32 38 51 52 66 71 
8 108 109 110 111 23 29 65 68 
8 38 32 29 23 71 66 65 68 
8 5 31 69 67 108 109 110 111 
8 27 32 41 45 52 66 63 72 
8 106 107 104 105 18 21 59 58 
8 45 41 35 15 72 63 64 56 
8 1 17 60 61 106 107 104 105 
8 24 27 45 46 53 52 72 73 
8 104 105 101 100 59 58 83 84 
8 46 45 15 12 73 72 56 57 
8 60 61 86 85 104 105 101 100 
8 132 133 134 123 103 102 19 20 
8 100 101 83 84 132 133 134 123 
8 51 52 66 71 76 77 91 96 
8 71 66 65 68 96 91 90 93 
8 52 66 63 72 77 91 88 97 
8 53 52 72 73 78 77 97 98 
8 73 72 56 57 98 97 81 82 
8 124 125 126 127 3 11 14 13 
8 79 80 81 82 124 125 126 127 
8 120 121 122 123 43 40 34 20 
8 87 88 89 84 120 121 122 123 
8 69 74 99 94 110 113 118 114 
8 110 113 118 114 65 62 87 90 
8 60 74 99 85 104 113 118 100 
8 104 113 118 100 59 62 87 84 
8 80 81 89 95 125 126 122 139 
8 125 126 122 139 11 14 34 37 
8 95 89 84 83 139 122 123 134 
8 139 122 123 134 37 34 20 19 
8 76 77 91 96 129 130 138 140 
8 129 130 138 140 10 26 33 39 
8 96 91 90 93 140 138 137 141 
8 140 138 137 141 39 33 28 22 
8 77 91 88 97 130 138 121 142 
8 130 138 121 142 26 33 40 44 
8 97 88 89 81 142 121 122 126 
8 142 121 122 126 44 40 34 14 
8 78 77 97 98 131 130 142 143 
8 131 130 142 143 25 26 44 47 
8 98 97 81 82 143 142 126 127 
8 143 142 126 127 47 44 14 13 
8 92 94 114 115 144 145 146 147 
8 144 145 146 147 6 30 116 117 
8 115 114 90 93 147 146 137 141 
8 147 146 137 141 117 116 28 22 
8 94 99 118 114 145 148 149 146 
8 145 148 149 146 30 48 119 116 
8 114 118 87 90 146 149 120 137 
8 146 149 120 137 116 119 43 28 
8 85 99 118 100 135 148 149 132 
8 135 148 149 132 16 48 119 103 
8 100 118 87 84 132 149 120 123 
8 132 149 120 123 103 119 43 20 

CELL_TYPES 79
12 
12 
12 
12 
12 
12 
12 
12 
12 
12 
12 
12 
12 
12 
12 
12 
12 
12 
12 
12 
12 
12 
12 
12 
12 
12 
12 
12 
12 
12 
12 
12 
12 
12 
12 
12 
12 
12 
12 
12 
12 
12 
12 
12 
12 
12 
12 
12 
12 
12 
12 
12 
12 
12 
12 
12 
12 
12 
12 
12 
12 
12 
12 
12 
12 
12 
12 
12 
12 
12 
12 
12 
12 
12 
12 
12 
12 
12 
12 
POINT_DATA 150
SCALARS GMDS_ID int 1
LOOKUP_TABLE default
0 1 2 3 4 5 6 7 8 9 10 11 12 13 14 15 16 17 18 19 20 21 22 23 24 25 26 27 28 29 30 31 32 33 34 35 36 37 38 39 40 41 42 43 44 45 46 47 48 49 50 51 52 53 54 55 56 57 58 59 60 61 62 63 64 65 66 67 68 69 70 71 72 73 74 75 76 77 78 79 80 81 82 83 84 85 86 87 88 89 90 91 92 93 94 95 96 97 98 99 100 101 102 103 104 105 106 107 108 109 110 111 112 113 114 115 116 117 118 119 120 121 122 123 124 125 126 127 128 129 130 131 132 133 134 135 136 137 138 139 140 141 142 143 144 145 146 147 148 149 
SCALARS geom_link_dim int 1
LOOKUP_TABLE default
1 1 1 1 1 1 1 1 2 2 2 2 2 2 3 3 2 2 2 2 3 3 2 2 2 2 3 3 3 3 2 2 3 3 3 3 2 2 2 2 3 3 3 3 3 3 2 2 2 2 2 3 0 3 2 3 1 3 3 0 3 2 0 1 1 0 0 2 3 3 3 3 1 3 3 2 3 0 3 2 3 1 3 3 0 3 2 0 1 1 0 0 2 3 3 3 3 1 3 3 0 3 2 3 0 3 2 3 2 3 0 3 3 0 0 3 3 2 0 3 0 0 0 0 2 3 0 3 2 3 0 3 0 3 3 3 2 0 0 3 3 3 0 3 2 3 0 3 3 0 
SCALARS geom_link_id int 1
LOOKUP_TABLE default
10 12 16 13 9 11 15 14 19 29 26 31 21 33 13 10 27 32 19 31 13 10 26 29 21 33 13 10 13 10 27 32 10 13 13 10 19 31 29 26 13 10 10 13 13 10 21 33 27 32 28 18 0 12 20 11 18 12 11 0 17 30 0 19 20 0 0 25 18 17 11 18 17 12 17 28 18 0 12 20 11 21 12 11 0 17 30 0 23 24 0 0 25 18 17 11 18 22 12 17 0 11 31 13 0 11 19 10 29 10 0 18 10 0 0 18 13 26 0 13 0 0 0 0 20 11 0 12 28 18 0 12 0 11 11 17 30 0 0 11 18 18 0 12 25 17 0 18 17 0 


CELL_DATA 79
SCALARS GMDS_ID int 1
LOOKUP_TABLE default
0 2 7 8 9 10 11 12 14 15 17 19 20 21 22 23 24 25 26 27 28 29 30 31 32 33 34 35 36 37 38 39 40 41 42 43 44 46 48 50 52 56 58 60 61 62 63 64 65 68 69 72 73 74 75 76 77 78 79 80 81 82 83 84 85 86 87 88 89 90 91 92 93 94 95 96 97 98 99 

SCALARS is_in int 1
LOOKUP_TABLE default
1 1 1 1 1 1 1 1 1 1 1 1 1 1 1 1 1 1 1 1 1 1 1 1 1 1 1 1 1 1 1 1 1 1 1 1 1 1 1 1 1 1 1 1 1 1 1 1 1 1 1 1 1 1 1 1 1 1 1 1 1 1 1 1 1 1 1 1 1 1 1 1 1 0 1 1 1 1 1 

SCALARS geom_link_dim int 1
LOOKUP_TABLE default
0 0 0 0 0 0 0 0 0 0 0 0 0 0 0 0 0 0 0 0 0 0 0 0 0 0 0 0 0 0 0 0 0 0 0 0 0 0 0 0 0 0 0 0 0 0 0 0 0 0 0 0 0 0 0 0 0 0 0 0 0 0 0 0 0 0 0 0 0 0 0 0 0 0 0 0 0 0 0 

SCALARS geom_link_id int 1
LOOKUP_TABLE default
0 0 0 0 0 0 0 0 0 0 0 0 0 0 0 0 0 0 0 0 0 0 0 0 0 0 0 0 0 0 0 0 0 0 0 0 0 0 0 0 0 0 0 0 0 0 0 0 0 0 0 0 0 0 0 0 0 0 0 0 0 0 0 0 0 0 0 0 0 0 0 0 0 0 0 0 0 0 0 

