# vtk DataFile Version 3.0
Generated by GMDS VTK Writer

ASCII
DATASET UNSTRUCTURED_GRID
POINTS 39 float
5 0 0
5 0 -5
10 -5 10
10 5 10
-5 -5 -8.88178419700125e-16
10 5 0
-5 5 0
0 5 -5
0 5 0
0 -5 0
0 5 10
0 10 0
-5 0 0
0 0 0
0 0 -5
10 0 0
0 0 10
10 -4.44089209850063e-16 10
-5 5 5
0 5 5
0 10 5
10 5 5
-5 -5 5
0 -5 5
0 0 5
-5 0 5
10 -5 5
10 0 5
5 5 0
5 5 -5
5 -5 0
5 5 5
5 10 5
5 10 0
5 5 10
5 -5 10
5 0 10
5 0 5
5 -5 5

CELLS 10 90
8 14 13 8 7 1 0 28 29 
8 19 20 11 8 31 32 33 28 
8 22 23 24 25 4 9 13 12 
8 25 24 19 18 12 13 8 6 
8 35 36 37 38 2 17 27 26 
8 23 24 13 9 38 37 0 30 
8 10 16 24 19 34 36 37 31 
8 34 36 37 31 3 17 27 21 
8 19 24 13 8 31 37 0 28 
8 31 37 0 28 21 27 15 5 

CELL_TYPES 10
12 
12 
12 
12 
12 
12 
12 
12 
12 
12 
POINT_DATA 39
SCALARS GMDS_ID int 1
LOOKUP_TABLE default
0 1 7 10 12 14 15 19 20 21 22 25 28 29 30 31 34 35 37 38 39 40 42 43 44 45 46 47 48 49 51 52 53 54 55 58 59 60 61 
SCALARS geom_link_dim int 1
LOOKUP_TABLE default
1 1 0 0 0 1 1 1 1 1 1 1 1 1 1 1 1 0 1 1 1 1 0 1 1 1 0 1 1 1 1 1 1 1 1 0 1 1 1 
SCALARS geom_link_id int 1
LOOKUP_TABLE default
26 25 -1 -1 -1 21 5 18 1 28 16 4 11 12 19 29 20 -1 6 2 3 22 -1 27 14 13 -1 30 10 17 31 8 7 9 15 -1 24 23 32 


CELL_DATA 10
SCALARS GMDS_ID int 1
LOOKUP_TABLE default
8 13 17 19 27 28 30 31 32 33 

SCALARS is_in int 1
LOOKUP_TABLE default
1 1 0 1 0 1 1 0 1 1 

SCALARS geom_link_dim int 1
LOOKUP_TABLE default
0 0 0 0 0 0 0 0 0 0 

SCALARS geom_link_id int 1
LOOKUP_TABLE default
0 0 0 0 0 0 0 0 0 0 

