# vtk DataFile Version 3.0
Generated by GMDS VTK Writer

ASCII
DATASET UNSTRUCTURED_GRID
POINTS 37 float
5 0 0
5 0 -5
10 -5 10
10 5 10
10 5 0
-5 5 0
0 5 -5
0 5 0
0 -5 0
0 5 10
0 10 0
-5 0 0
0 0 0
0 0 -5
10 0 0
0 0 10
10 -4.44089209850063e-16 10
-5 5 5
0 5 5
0 10 5
10 5 5
0 -5 5
0 0 5
-5 0 5
10 -5 5
10 0 5
5 5 0
5 5 -5
5 -5 0
5 5 5
5 10 5
5 10 0
5 5 10
5 -5 10
5 0 10
5 0 5
5 -5 5

CELLS 72 216
2 6 27
2 7 26
2 13 6
2 26 4
2 8 12
2 5 7
2 0 14
2 19 10
2 12 0
2 9 18
2 11 5
2 12 7
2 26 0
2 0 1
2 13 1
2 27 26
2 18 7
2 6 7
2 17 5
2 8 28
2 7 10
2 27 1
2 11 12
2 13 12
2 14 4
2 15 9
2 28 0
2 2 16
2 16 3
2 17 18
2 18 19
2 3 20
2 20 4
2 21 8
2 15 22
2 22 12
2 23 11
2 21 22
2 23 22
2 18 22
2 17 23
2 2 24
2 16 25
2 25 14
2 24 25
2 20 25
2 18 29
2 29 20
2 19 30
2 10 31
2 29 30
2 31 30
2 26 31
2 26 29
2 9 32
2 32 3
2 32 29
2 33 2
2 15 34
2 34 16
2 22 35
2 35 25
2 21 36
2 36 24
2 33 34
2 34 35
2 36 35
2 33 36
2 0 35
2 28 36
2 32 34
2 29 35

CELL_TYPES 72
3 
3 
3 
3 
3 
3 
3 
3 
3 
3 
3 
3 
3 
3 
3 
3 
3 
3 
3 
3 
3 
3 
3 
3 
3 
3 
3 
3 
3 
3 
3 
3 
3 
3 
3 
3 
3 
3 
3 
3 
3 
3 
3 
3 
3 
3 
3 
3 
3 
3 
3 
3 
3 
3 
3 
3 
3 
3 
3 
3 
3 
3 
3 
3 
3 
3 
3 
3 
3 
3 
3 
3 
POINT_DATA 37
SCALARS GMDS_ID int 1
LOOKUP_TABLE default
0 1 7 10 14 15 19 20 21 22 25 28 29 30 31 34 35 37 38 39 40 43 44 45 46 47 48 49 51 52 53 54 55 58 59 60 61 
SCALARS geom_link_dim int 1
LOOKUP_TABLE default
1 1 0 0 1 1 1 1 1 1 1 1 1 1 1 1 0 1 1 1 1 1 1 1 0 1 1 1 1 1 1 1 1 0 1 1 1 
SCALARS geom_link_id int 1
LOOKUP_TABLE default
26 25 -1 -1 21 5 18 1 28 16 4 11 12 19 29 20 -1 6 2 3 22 27 14 13 -1 30 10 17 31 8 7 9 15 -1 24 23 32 


CELL_DATA 72
SCALARS GMDS_ID int 1
LOOKUP_TABLE default
0 1 3 6 7 8 10 12 13 14 21 23 25 33 34 35 41 42 50 51 57 62 63 64 67 76 77 80 81 84 85 87 88 97 98 99 101 103 104 106 107 108 110 111 114 115 117 118 119 121 123 124 125 126 127 128 133 139 140 141 142 143 144 145 146 147 148 149 150 151 152 153 

SCALARS geom_link_dim int 1
LOOKUP_TABLE default
2 2 2 2 2 2 2 2 2 2 2 2 2 2 2 2 2 2 2 2 2 2 2 2 2 2 2 0 0 2 2 0 2 2 2 2 2 2 2 2 2 0 0 2 0 2 2 2 2 2 2 2 2 2 2 0 2 0 2 0 2 2 2 0 0 2 2 0 2 2 2 0 

SCALARS geom_link_id int 1
LOOKUP_TABLE default
41 12 50 39 52 15 14 43 4 44 60 2 6 13 47 24 9 18 48 55 51 53 27 26 56 31 16 0 0 23 42 0 22 40 25 8 54 45 19 11 58 0 0 57 0 46 5 38 30 21 29 32 33 3 37 0 35 0 49 0 1 20 17 0 0 28 34 0 7 59 36 0 

