# vtk DataFile Version 3.0
Generated by GMDS VTK Writer

ASCII
DATASET UNSTRUCTURED_GRID
POINTS 54 float
5 0 0
5 0 -5
10 10 -5
-5 -5 10
10 -5 10
-5 5 10
10 5 10
10 5 -5
-5 -5 -8.88178419700125e-16
10 -5 -8.88178419700125e-16
10 5 0
-5 5 0
10 10 -8.88178419700125e-16
-8.88178419700125e-16 -5 -5
0 5 -5
0 5 0
0 -5 0
0 5 10
-8.88178419700125e-16 -5 10
-8.88178419700125e-16 10 -5
0 10 0
-8.88178419700125e-16 10 10
-5 0 0
0 0 0
0 0 -5
10 0 0
-5 -4.44089209850063e-16 10
0 0 10
10 -4.44089209850063e-16 10
-5 5 5
0 5 5
0 10 5
10 5 5
10 10 5
-5 -5 5
0 -5 5
-2.22044604925031e-16 0 5
-5 0 5
10 -5 5
10 0 5
5 5 0
5 5 -5
5 -5 -5
5 -5 0
5 5 5
5 10 5
5 10 0
5 5 10
5 10 10
5 10 -5
5 -5 10
5 0 10
5 0 5
5 -5 5

CELLS 116 348
2 14 41
2 15 40
2 24 14
2 42 43
2 8 22
2 40 10
2 16 23
2 11 15
2 0 25
2 31 20
2 23 0
2 17 30
2 5 29
2 7 2
2 22 11
2 23 15
2 7 10
2 40 0
2 13 24
2 2 12
2 0 1
2 24 1
2 41 40
2 12 10
2 8 16
2 30 15
2 14 15
2 21 31
2 13 16
2 5 17
2 3 18
2 13 42
2 29 11
2 16 43
2 19 14
2 15 20
2 19 20
2 21 17
2 41 1
2 22 23
2 24 23
2 9 25
2 25 10
2 3 26
2 26 5
2 18 27
2 27 17
2 43 0
2 43 9
2 26 27
2 4 28
2 28 6
2 41 7
2 29 30
2 30 31
2 6 32
2 32 10
2 33 12
2 33 32
2 3 34
2 34 8
2 18 35
2 35 16
2 27 36
2 36 23
2 26 37
2 37 22
2 34 35
2 35 36
2 37 36
2 34 37
2 30 36
2 29 37
2 4 38
2 38 9
2 28 39
2 39 25
2 38 39
2 32 39
2 42 1
2 30 44
2 44 32
2 31 45
2 45 33
2 20 46
2 46 12
2 44 45
2 46 45
2 40 46
2 40 44
2 17 47
2 47 6
2 21 48
2 47 48
2 48 45
2 47 44
2 19 49
2 49 2
2 41 49
2 49 46
2 18 50
2 50 4
2 27 51
2 51 28
2 36 52
2 52 39
2 35 53
2 53 38
2 50 51
2 51 52
2 53 52
2 50 53
2 0 52
2 43 53
2 47 51
2 44 52

CELL_TYPES 116
3 
3 
3 
3 
3 
3 
3 
3 
3 
3 
3 
3 
3 
3 
3 
3 
3 
3 
3 
3 
3 
3 
3 
3 
3 
3 
3 
3 
3 
3 
3 
3 
3 
3 
3 
3 
3 
3 
3 
3 
3 
3 
3 
3 
3 
3 
3 
3 
3 
3 
3 
3 
3 
3 
3 
3 
3 
3 
3 
3 
3 
3 
3 
3 
3 
3 
3 
3 
3 
3 
3 
3 
3 
3 
3 
3 
3 
3 
3 
3 
3 
3 
3 
3 
3 
3 
3 
3 
3 
3 
3 
3 
3 
3 
3 
3 
3 
3 
3 
3 
3 
3 
3 
3 
3 
3 
3 
3 
3 
3 
3 
3 
3 
3 
3 
3 
POINT_DATA 54
SCALARS GMDS_ID int 1
LOOKUP_TABLE default
0 1 2 4 7 9 10 11 12 13 14 15 16 18 19 20 21 22 23 24 25 26 28 29 30 31 33 34 35 37 38 39 40 41 42 43 44 45 46 47 48 49 50 51 52 53 54 55 56 57 58 59 60 61 
SCALARS geom_link_dim int 1
LOOKUP_TABLE default
1 1 0 0 0 0 0 0 0 0 1 1 0 0 1 1 1 1 0 0 1 0 1 1 1 1 0 1 0 1 1 1 1 0 0 1 0 1 0 1 1 1 0 1 1 1 1 1 0 0 0 1 0 1 
SCALARS geom_link_id int 1
LOOKUP_TABLE default
26 25 -1 -1 -1 -1 -1 -1 -1 -1 21 5 -1 -1 18 1 28 16 -1 -1 4 -1 11 12 19 29 -1 20 -1 6 2 3 22 -1 -1 27 0 13 -1 30 10 17 -1 31 8 7 9 15 -1 -1 -1 24 0 32 


CELL_DATA 116
SCALARS GMDS_ID int 1
LOOKUP_TABLE default
0 1 3 4 5 6 7 8 10 12 13 14 16 19 21 23 24 25 30 32 33 34 35 36 39 41 42 43 44 45 47 49 50 51 56 57 58 61 62 63 64 66 67 73 74 75 76 77 78 79 80 81 82 84 85 87 88 90 92 94 95 96 97 98 99 100 101 102 103 104 105 106 107 108 109 110 111 114 115 116 117 118 119 120 121 122 123 124 125 126 127 128 129 131 132 133 134 135 136 137 138 139 140 141 142 143 144 145 146 147 148 149 150 151 152 153 

SCALARS geom_link_dim int 1
LOOKUP_TABLE default
2 0 2 0 0 2 2 2 2 2 0 2 0 0 2 2 0 2 0 0 2 2 2 0 0 2 2 0 0 0 0 0 2 2 0 2 0 0 2 2 2 0 2 0 0 0 2 2 0 0 0 0 0 2 2 0 2 0 0 0 0 0 2 0 0 0 2 0 0 0 0 0 2 0 0 0 2 0 2 0 0 2 2 0 2 0 2 2 0 0 2 0 0 0 0 2 0 0 0 0 0 0 2 0 0 0 2 0 0 0 0 0 0 2 2 0 

SCALARS geom_link_id int 1
LOOKUP_TABLE default
41 0 50 0 0 39 52 15 14 43 0 44 0 0 60 2 0 6 0 0 13 47 24 0 0 9 18 0 0 0 0 0 48 55 0 51 0 0 53 27 26 0 56 0 0 0 31 16 0 0 0 0 0 23 42 0 22 0 0 0 0 0 40 0 0 0 54 0 0 0 0 0 58 0 0 0 57 0 46 0 0 38 30 0 21 0 29 32 0 0 37 0 0 0 0 35 0 0 0 0 0 0 49 0 0 0 17 0 0 0 0 0 0 59 36 0 

