# vtk DataFile Version 3.0
Generated by GMDS VTK Writer

ASCII
DATASET UNSTRUCTURED_GRID
POINTS 32 float
5 0 0
5 0 -5
10 5 0
-5 5 0
0 5 -5
0 5 0
0 -5 0
0 5 10
0 10 0
-5 0 0
0 0 0
0 0 -5
10 0 0
0 0 10
-5 5 5
0 5 5
0 10 5
10 5 5
0 -5 5
0 0 5
-5 0 5
10 0 5
5 5 0
5 5 -5
5 -5 0
5 5 5
5 10 5
5 10 0
5 5 10
5 0 10
5 0 5
5 -5 5

CELLS 60 180
2 4 23
2 5 22
2 11 4
2 22 2
2 6 10
2 3 5
2 0 12
2 16 8
2 10 0
2 7 15
2 9 3
2 10 5
2 22 0
2 0 1
2 11 1
2 23 22
2 15 5
2 4 5
2 14 3
2 6 24
2 5 8
2 23 1
2 9 10
2 11 10
2 12 2
2 13 7
2 24 0
2 14 15
2 15 16
2 17 2
2 18 6
2 13 19
2 19 10
2 20 9
2 18 19
2 20 19
2 15 19
2 14 20
2 21 12
2 17 21
2 15 25
2 25 17
2 16 26
2 8 27
2 25 26
2 27 26
2 22 27
2 22 25
2 7 28
2 28 25
2 13 29
2 19 30
2 30 21
2 18 31
2 29 30
2 31 30
2 0 30
2 24 31
2 28 29
2 25 30

CELL_TYPES 60
3 
3 
3 
3 
3 
3 
3 
3 
3 
3 
3 
3 
3 
3 
3 
3 
3 
3 
3 
3 
3 
3 
3 
3 
3 
3 
3 
3 
3 
3 
3 
3 
3 
3 
3 
3 
3 
3 
3 
3 
3 
3 
3 
3 
3 
3 
3 
3 
3 
3 
3 
3 
3 
3 
3 
3 
3 
3 
3 
3 
POINT_DATA 32
SCALARS GMDS_ID int 1
LOOKUP_TABLE default
0 1 14 15 19 20 21 22 25 28 29 30 31 34 37 38 39 40 43 44 45 47 48 49 51 52 53 54 55 59 60 61 
SCALARS geom_link_dim int 1
LOOKUP_TABLE default
1 1 1 1 1 1 1 1 1 1 1 1 1 1 1 1 1 1 1 1 1 1 1 1 1 1 1 1 1 1 1 1 
SCALARS geom_link_id int 1
LOOKUP_TABLE default
26 25 21 5 18 1 28 16 4 11 12 19 29 20 6 2 3 22 27 14 13 30 10 17 31 8 7 9 15 24 23 32 


CELL_DATA 60
SCALARS GMDS_ID int 1
LOOKUP_TABLE default
0 1 3 6 7 8 10 12 13 14 21 23 25 33 34 35 41 42 50 51 57 62 63 64 67 76 77 84 85 88 97 98 99 101 103 104 106 107 111 115 117 118 119 121 123 124 125 126 127 133 140 142 143 144 147 148 150 151 152 153 

SCALARS geom_link_dim int 1
LOOKUP_TABLE default
2 2 2 2 2 2 2 2 2 2 2 2 2 2 2 2 2 2 2 2 2 2 2 2 2 2 2 2 2 2 2 2 2 2 2 2 2 2 2 2 2 2 2 2 2 2 2 2 2 2 2 2 2 2 2 2 2 2 2 2 

SCALARS geom_link_id int 1
LOOKUP_TABLE default
41 12 50 39 52 15 14 43 4 44 60 2 6 13 47 24 9 18 48 55 51 53 27 26 56 31 16 23 42 22 40 25 8 54 45 19 11 58 57 46 5 38 30 21 29 32 33 3 37 35 49 1 20 17 28 34 7 59 36 10 

