# vtk DataFile Version 3.0
Generated by GMDS VTK Writer

ASCII
DATASET UNSTRUCTURED_GRID
POINTS 36 float
5 0 0
5 0 -5
10 -5 10
10 5 0
-5 5 0
0 5 -5
0 5 0
0 -5 0
0 5 10
0 10 0
-5 0 0
0 0 0
0 0 -5
10 0 0
0 0 10
10 -4.44089209850063e-16 10
-5 5 5
0 5 5
0 10 5
10 5 5
0 -5 5
0 0 5
-5 0 5
10 -5 5
10 0 5
5 5 0
5 5 -5
5 -5 0
5 5 5
5 10 5
5 10 0
5 5 10
5 -5 10
5 0 10
5 0 5
5 -5 5

CELLS 69 207
2 5 26
2 6 25
2 12 5
2 25 3
2 7 11
2 4 6
2 0 13
2 18 9
2 11 0
2 8 17
2 10 4
2 11 6
2 25 0
2 0 1
2 12 1
2 26 25
2 17 6
2 5 6
2 16 4
2 7 27
2 6 9
2 26 1
2 10 11
2 12 11
2 13 3
2 14 8
2 27 0
2 2 15
2 16 17
2 17 18
2 19 3
2 20 7
2 14 21
2 21 11
2 22 10
2 20 21
2 22 21
2 17 21
2 16 22
2 2 23
2 15 24
2 24 13
2 23 24
2 19 24
2 17 28
2 28 19
2 18 29
2 9 30
2 28 29
2 30 29
2 25 30
2 25 28
2 8 31
2 31 28
2 32 2
2 14 33
2 33 15
2 21 34
2 34 24
2 20 35
2 35 23
2 32 33
2 33 34
2 35 34
2 32 35
2 0 34
2 27 35
2 31 33
2 28 34

CELL_TYPES 69
3 
3 
3 
3 
3 
3 
3 
3 
3 
3 
3 
3 
3 
3 
3 
3 
3 
3 
3 
3 
3 
3 
3 
3 
3 
3 
3 
3 
3 
3 
3 
3 
3 
3 
3 
3 
3 
3 
3 
3 
3 
3 
3 
3 
3 
3 
3 
3 
3 
3 
3 
3 
3 
3 
3 
3 
3 
3 
3 
3 
3 
3 
3 
3 
3 
3 
3 
3 
3 
POINT_DATA 36
SCALARS GMDS_ID int 1
LOOKUP_TABLE default
0 1 7 14 15 19 20 21 22 25 28 29 30 31 34 35 37 38 39 40 43 44 45 46 47 48 49 51 52 53 54 55 58 59 60 61 
SCALARS geom_link_dim int 1
LOOKUP_TABLE default
1 1 0 1 1 1 1 1 1 1 1 1 1 1 1 0 1 1 1 1 1 1 1 0 1 1 1 1 1 1 1 1 0 1 1 1 
SCALARS geom_link_id int 1
LOOKUP_TABLE default
26 25 -1 21 5 18 1 28 16 4 11 12 19 29 20 -1 6 2 3 22 27 14 13 -1 30 10 17 31 8 7 9 15 -1 24 23 32 


CELL_DATA 69
SCALARS GMDS_ID int 1
LOOKUP_TABLE default
0 1 3 6 7 8 10 12 13 14 21 23 25 33 34 35 41 42 50 51 57 62 63 64 67 76 77 80 84 85 88 97 98 99 101 103 104 106 107 108 110 111 114 115 117 118 119 121 123 124 125 126 127 133 139 140 141 142 143 144 145 146 147 148 149 150 151 152 153 

SCALARS geom_link_dim int 1
LOOKUP_TABLE default
2 2 2 2 2 2 2 2 2 2 2 2 2 2 2 2 2 2 2 2 2 2 2 2 2 2 2 0 2 2 2 2 2 2 2 2 2 2 2 0 0 2 0 2 2 2 2 2 2 2 2 2 2 2 0 2 0 2 2 2 0 0 2 2 0 2 2 2 2 

SCALARS geom_link_id int 1
LOOKUP_TABLE default
41 12 50 39 52 15 14 43 4 44 60 2 6 13 47 24 9 18 48 55 51 53 27 26 56 31 16 0 23 42 22 40 25 8 54 45 19 11 58 0 0 57 0 46 5 38 30 21 29 32 33 3 37 35 0 49 0 1 20 17 0 0 28 34 0 7 59 36 10 

