# vtk DataFile Version 3.0
Generated by GMDS VTK Writer

ASCII
DATASET UNSTRUCTURED_GRID
POINTS 40 float
0 0 0
0 10 0
10 10 0
10 0 0
0 0 10
0 10 10
10 10 10
10 0 10
0 1 0
0 1 10
10 1 10
10 1 0
0 0 1
10 0 1
10 1 1
0 1 1
10 10 1
0 10 1
0 6 0
10 6 0
10 6 1
0 6 1
10 6 10
0 6 10
0 0 8
10 0 8
10 1 8
0 1 8
10 6 8
0 6 8
10 10 8
0 10 8
0 4 8
10 4 8
10 4 1
0 4 1
0 4 0
10 4 0
0 4 10
10 4 10

CELLS 82 246
2 27 32
2 1 2
2 3 13
2 3 0
2 32 29
2 5 6
2 0 12
2 7 4
2 18 1
2 0 8
2 24 12
2 4 9
2 25 13
2 7 10
2 26 14
2 3 11
2 4 24
2 20 16
2 9 10
2 19 2
2 8 11
2 11 14
2 15 35
2 8 15
2 14 34
2 12 13
2 13 14
2 15 14
2 12 15
2 2 16
2 33 28
2 1 17
2 26 33
2 10 26
2 17 16
2 7 25
2 21 17
2 18 19
2 19 20
2 20 21
2 18 21
2 22 6
2 23 5
2 35 21
2 23 22
2 34 20
2 9 27
2 27 15
2 24 25
2 25 26
2 27 26
2 24 27
2 22 28
2 28 20
2 23 29
2 29 21
2 28 29
2 6 30
2 30 16
2 5 31
2 31 17
2 30 28
2 31 30
2 31 29
2 33 32
2 34 33
2 34 35
2 35 32
2 8 36
2 36 18
2 11 37
2 37 19
2 36 37
2 37 34
2 36 35
2 9 38
2 38 23
2 10 39
2 39 22
2 38 39
2 39 33
2 38 32

CELL_TYPES 82
3 
3 
3 
3 
3 
3 
3 
3 
3 
3 
3 
3 
3 
3 
3 
3 
3 
3 
3 
3 
3 
3 
3 
3 
3 
3 
3 
3 
3 
3 
3 
3 
3 
3 
3 
3 
3 
3 
3 
3 
3 
3 
3 
3 
3 
3 
3 
3 
3 
3 
3 
3 
3 
3 
3 
3 
3 
3 
3 
3 
3 
3 
3 
3 
3 
3 
3 
3 
3 
3 
3 
3 
3 
3 
3 
3 
3 
3 
3 
3 
3 
3 
POINT_DATA 40
SCALARS GMDS_ID int 1
LOOKUP_TABLE default
0 1 2 3 4 5 6 7 8 9 10 11 12 13 14 15 16 17 18 19 20 21 22 23 24 25 26 27 28 29 30 31 32 33 34 35 36 37 38 39 
SCALARS geom_link_dim int 1
LOOKUP_TABLE default
1 1 1 1 1 1 1 1 2 2 2 2 2 2 3 3 2 2 2 2 3 3 2 2 2 2 3 3 3 3 2 2 3 3 3 3 2 2 2 2 
SCALARS geom_link_id int 1
LOOKUP_TABLE default
10 12 16 13 9 11 15 14 19 29 26 31 21 33 13 10 27 32 19 31 13 10 26 29 21 33 13 10 13 10 27 32 10 13 13 10 19 31 29 26 


CELL_DATA 82
SCALARS GMDS_ID int 1
LOOKUP_TABLE default
0 1 2 3 4 5 6 7 9 12 13 14 15 16 17 18 19 20 21 22 23 24 25 26 27 28 29 30 31 32 33 34 35 36 37 38 40 41 42 43 44 46 48 49 50 51 52 53 54 55 56 57 58 59 60 61 63 65 66 67 68 69 70 71 72 73 74 75 76 77 78 79 80 81 82 83 84 85 86 87 88 89 

SCALARS geom_link_dim int 1
LOOKUP_TABLE default
0 2 2 2 0 2 2 2 2 2 2 2 2 2 0 2 2 0 0 2 0 0 0 0 0 0 0 0 0 2 0 2 0 0 0 2 0 0 0 0 0 2 2 0 0 0 0 0 0 0 0 0 0 0 0 0 0 2 2 2 2 0 0 0 0 0 0 0 2 2 2 2 0 0 0 2 2 2 2 0 0 0 

SCALARS geom_link_id int 1
LOOKUP_TABLE default
-1 30 33 20 -1 25 21 28 19 19 21 29 33 26 0 31 21 0 0 31 0 0 -1 0 -1 0 0 0 0 27 -1 32 -1 0 0 33 0 0 0 0 0 26 29 -1 0 -1 0 0 0 0 0 0 0 0 0 0 0 27 27 32 32 0 0 0 -1 -1 -1 -1 19 19 31 31 -1 -1 -1 29 29 26 26 -1 -1 -1 

