# vtk DataFile Version 3.0
Generated by GMDS VTK Writer

ASCII
DATASET UNSTRUCTURED_GRID
POINTS 39 float
5 0 0
5 0 -5
10 -5 10
10 5 10
-5 -5 -8.88178419700125e-16
10 5 0
-5 5 0
0 5 -5
0 5 0
0 -5 0
0 5 10
0 10 0
-5 0 0
0 0 0
0 0 -5
10 0 0
0 0 10
10 -4.44089209850063e-16 10
-5 5 5
0 5 5
0 10 5
10 5 5
-5 -5 5
0 -5 5
0 0 5
-5 0 5
10 -5 5
10 0 5
5 5 0
5 5 -5
5 -5 0
5 5 5
5 10 5
5 10 0
5 5 10
5 -5 10
5 0 10
5 0 5
5 -5 5

CELLS 77 231
2 7 29
2 8 28
2 14 7
2 4 12
2 28 5
2 9 13
2 6 8
2 0 15
2 20 11
2 13 0
2 10 19
2 12 6
2 13 8
2 28 0
2 0 1
2 14 1
2 29 28
2 4 9
2 19 8
2 7 8
2 18 6
2 9 30
2 8 11
2 29 1
2 12 13
2 14 13
2 15 5
2 16 10
2 30 0
2 2 17
2 17 3
2 18 19
2 19 20
2 3 21
2 21 5
2 22 4
2 23 9
2 16 24
2 24 13
2 25 12
2 22 23
2 23 24
2 25 24
2 22 25
2 19 24
2 18 25
2 2 26
2 17 27
2 27 15
2 26 27
2 21 27
2 19 31
2 31 21
2 20 32
2 11 33
2 31 32
2 33 32
2 28 33
2 28 31
2 10 34
2 34 3
2 34 31
2 35 2
2 16 36
2 36 17
2 24 37
2 37 27
2 23 38
2 38 26
2 35 36
2 36 37
2 38 37
2 35 38
2 0 37
2 30 38
2 34 36
2 31 37

CELL_TYPES 77
3 
3 
3 
3 
3 
3 
3 
3 
3 
3 
3 
3 
3 
3 
3 
3 
3 
3 
3 
3 
3 
3 
3 
3 
3 
3 
3 
3 
3 
3 
3 
3 
3 
3 
3 
3 
3 
3 
3 
3 
3 
3 
3 
3 
3 
3 
3 
3 
3 
3 
3 
3 
3 
3 
3 
3 
3 
3 
3 
3 
3 
3 
3 
3 
3 
3 
3 
3 
3 
3 
3 
3 
3 
3 
3 
3 
3 
POINT_DATA 39
SCALARS GMDS_ID int 1
LOOKUP_TABLE default
0 1 7 10 12 14 15 19 20 21 22 25 28 29 30 31 34 35 37 38 39 40 42 43 44 45 46 47 48 49 51 52 53 54 55 58 59 60 61 
SCALARS geom_link_dim int 1
LOOKUP_TABLE default
1 1 0 0 0 1 1 1 1 1 1 1 1 1 1 1 1 0 1 1 1 1 0 1 1 1 0 1 1 1 1 1 1 1 1 0 1 1 1 
SCALARS geom_link_id int 1
LOOKUP_TABLE default
26 25 -1 -1 -1 21 5 18 1 28 16 4 11 12 19 29 20 -1 6 2 3 22 -1 27 14 13 -1 30 10 17 31 8 7 9 15 -1 24 23 32 


CELL_DATA 77
SCALARS GMDS_ID int 1
LOOKUP_TABLE default
0 1 3 5 6 7 8 10 12 13 14 21 23 25 33 34 35 39 41 42 50 51 57 62 63 64 67 76 77 80 81 84 85 87 88 95 97 98 99 101 102 103 104 105 106 107 108 110 111 114 115 117 118 119 121 123 124 125 126 127 128 133 139 140 141 142 143 144 145 146 147 148 149 150 151 152 153 

SCALARS geom_link_dim int 1
LOOKUP_TABLE default
2 2 2 0 2 2 2 2 2 2 2 2 2 2 2 2 2 0 2 2 2 2 2 2 2 2 2 2 2 0 0 2 2 0 2 0 2 2 0 2 0 2 2 0 2 2 0 0 2 0 2 2 2 2 2 2 2 2 2 2 0 2 0 2 0 2 2 2 0 0 2 2 0 2 2 2 0 

SCALARS geom_link_id int 1
LOOKUP_TABLE default
41 12 50 0 39 52 15 14 43 4 44 60 2 6 13 47 24 0 9 18 48 55 51 53 27 26 56 31 16 0 0 23 42 0 22 0 40 25 0 54 0 45 19 0 11 58 0 0 57 0 46 5 38 30 21 29 32 33 3 37 0 35 0 49 0 1 20 17 0 0 28 34 0 7 59 36 0 

