# vtk DataFile Version 3.0
Generated by GMDS VTK Writer

ASCII
DATASET UNSTRUCTURED_GRID
POINTS 49 float
5 0 0
5 0 -5
10 10 -5
-5 -5 10
10 -5 10
-5 5 10
10 5 10
10 5 -5
-5 -5 -8.88178419700125e-16
10 5 0
-5 5 0
10 10 -8.88178419700125e-16
-8.88178419700125e-16 -5 -5
0 5 -5
0 5 0
0 -5 0
0 5 10
-8.88178419700125e-16 -5 10
0 10 0
-5 0 0
0 0 0
0 0 -5
10 0 0
-5 -4.44089209850063e-16 10
0 0 10
10 -4.44089209850063e-16 10
-5 5 5
0 5 5
0 10 5
10 5 5
-5 -5 5
0 -5 5
0 0 5
-5 0 5
10 -5 5
10 0 5
5 5 0
5 5 -5
5 -5 -5
5 -5 0
5 5 5
5 10 5
5 10 0
5 5 10
5 10 -5
5 -5 10
5 0 10
5 0 5
5 -5 5

CELLS 101 303
2 13 37
2 14 36
2 21 13
2 38 39
2 8 19
2 36 9
2 15 20
2 10 14
2 0 22
2 28 18
2 20 0
2 16 27
2 5 26
2 7 2
2 19 10
2 20 14
2 7 9
2 36 0
2 12 21
2 2 11
2 0 1
2 21 1
2 37 36
2 11 9
2 8 15
2 27 14
2 13 14
2 12 15
2 5 16
2 3 17
2 12 38
2 26 10
2 15 39
2 14 18
2 37 1
2 19 20
2 21 20
2 22 9
2 3 23
2 23 5
2 17 24
2 24 16
2 39 0
2 23 24
2 4 25
2 25 6
2 37 7
2 26 27
2 27 28
2 6 29
2 29 9
2 3 30
2 30 8
2 17 31
2 31 15
2 24 32
2 32 20
2 23 33
2 33 19
2 30 31
2 31 32
2 33 32
2 30 33
2 27 32
2 26 33
2 4 34
2 25 35
2 35 22
2 34 35
2 29 35
2 38 1
2 27 40
2 40 29
2 28 41
2 18 42
2 42 11
2 40 41
2 42 41
2 36 42
2 36 40
2 16 43
2 43 6
2 43 40
2 44 2
2 37 44
2 44 42
2 45 4
2 24 46
2 46 25
2 32 47
2 47 35
2 31 48
2 48 34
2 45 46
2 46 47
2 48 47
2 45 48
2 0 47
2 39 48
2 43 46
2 40 47

CELL_TYPES 101
3 
3 
3 
3 
3 
3 
3 
3 
3 
3 
3 
3 
3 
3 
3 
3 
3 
3 
3 
3 
3 
3 
3 
3 
3 
3 
3 
3 
3 
3 
3 
3 
3 
3 
3 
3 
3 
3 
3 
3 
3 
3 
3 
3 
3 
3 
3 
3 
3 
3 
3 
3 
3 
3 
3 
3 
3 
3 
3 
3 
3 
3 
3 
3 
3 
3 
3 
3 
3 
3 
3 
3 
3 
3 
3 
3 
3 
3 
3 
3 
3 
3 
3 
3 
3 
3 
3 
3 
3 
3 
3 
3 
3 
3 
3 
3 
3 
3 
3 
3 
3 
POINT_DATA 49
SCALARS GMDS_ID int 1
LOOKUP_TABLE default
0 1 2 4 7 9 10 11 12 14 15 16 18 19 20 21 22 23 25 28 29 30 31 33 34 35 37 38 39 40 42 43 44 45 46 47 48 49 50 51 52 53 54 55 57 58 59 60 61 
SCALARS geom_link_dim int 1
LOOKUP_TABLE default
1 1 0 0 0 0 0 0 0 1 1 0 0 1 1 1 1 0 1 1 1 1 1 0 1 0 1 1 1 1 0 1 1 1 0 1 1 1 0 1 1 1 1 1 0 0 1 1 1 
SCALARS geom_link_id int 1
LOOKUP_TABLE default
26 25 -1 -1 -1 -1 -1 -1 -1 21 5 -1 -1 18 1 28 16 -1 4 11 12 19 29 -1 20 -1 6 2 3 22 -1 27 14 13 -1 30 10 17 -1 31 8 7 9 15 -1 -1 24 23 32 


CELL_DATA 101
SCALARS GMDS_ID int 1
LOOKUP_TABLE default
0 1 3 4 5 6 7 8 10 12 13 14 16 19 21 23 24 25 30 32 33 34 35 36 39 41 42 44 45 47 49 50 51 57 62 63 64 67 73 74 75 76 77 79 80 81 82 84 85 87 88 94 95 96 97 98 99 100 101 102 103 104 105 106 107 108 110 111 114 115 116 117 118 119 121 122 123 124 125 126 127 128 133 135 136 137 139 140 141 142 143 144 145 146 147 148 149 150 151 152 153 

SCALARS geom_link_dim int 1
LOOKUP_TABLE default
2 2 2 0 0 2 2 2 2 2 0 2 0 0 2 2 0 2 0 0 2 2 2 0 0 2 2 0 0 0 0 2 2 2 2 2 2 2 0 0 0 2 2 0 0 0 0 2 2 0 2 0 0 0 2 2 0 0 2 0 2 0 0 0 2 0 0 2 0 2 0 2 2 2 2 0 2 2 2 2 2 0 2 0 0 0 0 2 0 2 2 2 0 0 2 2 0 2 2 2 0 

SCALARS geom_link_id int 1
LOOKUP_TABLE default
41 12 50 0 0 39 52 15 14 43 0 44 0 0 60 2 0 6 0 0 13 47 24 0 0 9 18 0 0 0 0 48 55 51 53 27 26 56 0 0 0 31 16 0 0 0 0 23 42 0 22 0 0 0 40 25 0 0 54 0 45 0 0 0 58 0 0 57 0 46 0 5 38 30 21 0 29 32 33 3 37 0 35 0 0 0 0 49 0 1 20 17 0 0 28 34 0 7 59 36 0 

