# vtk DataFile Version 3.0
Generated by GMDS VTK Writer

ASCII
DATASET UNSTRUCTURED_GRID
POINTS 125 float
0 0 0
0 10 0
10 10 0
10 0 0
0 0 10
0 10 10
10 10 10
10 0 10
0 4 0
0 4 10
10 4 10
10 4 0
1 0 0
1 0 10
1 4 10
1 4 0
1 10 10
1 10 0
4 0 0
4 0 10
4 4 10
4 4 0
4 10 10
4 10 0
1 0 6
1 4 6
0 4 6
0 0 6
4 0 6
4 4 6
10 0 6
10 4 6
1 10 6
0 10 6
10 10 6
4 10 6
0 1 10
1 1 10
1 1 6
0 1 6
1 1 0
0 1 0
4 1 10
4 1 6
4 1 0
10 1 10
10 1 6
10 1 0
0 1 4
1 1 4
1 4 4
0 4 4
0 0 4
1 0 4
1 10 4
0 10 4
10 10 4
10 4 4
4 4 4
4 10 4
4 0 4
4 1 4
10 0 4
10 1 4
6 10 10
6 4 10
6 4 6
6 10 6
6 0 10
6 0 6
6 1 6
6 1 10
6 10 0
6 4 0
6 4 4
6 10 4
6 0 0
6 1 0
6 1 4
6 0 4
0 8 10
1 8 10
1 8 6
0 8 6
0 8 4
1 8 4
0 8 0
1 8 0
4 8 10
4 8 6
6 8 10
6 8 6
10 8 10
10 8 6
4 8 0
4 8 4
10 8 0
10 8 4
6 8 4
6 8 0
0 1 1
1 1 1
1 4 1
0 4 1
0 0 1
1 0 1
4 0 1
4 1 1
4 4 1
0 8 1
1 8 1
1 10 1
0 10 1
10 0 1
10 1 1
6 1 1
6 0 1
10 4 1
6 4 1
4 8 1
4 10 1
6 8 1
10 8 1
6 10 1
10 10 1

CELLS 300 900
2 13 4
2 25 82
2 9 26
2 20 14
2 12 0
2 18 12
2 7 68
2 50 85
2 4 36
2 13 37
2 24 38
2 27 39
2 50 49
2 100 48
2 40 101
2 0 104
2 48 39
2 41 100
2 36 9
2 9 80
2 39 26
2 19 13
2 14 25
2 14 9
2 68 19
2 15 8
2 36 37
2 37 38
2 51 48
2 64 67
2 16 5
2 13 24
2 17 1
2 101 49
2 37 14
2 103 51
2 14 81
2 21 15
2 38 39
2 50 25
2 36 39
2 51 26
2 51 84
2 22 16
2 80 5
2 23 17
2 104 52
2 38 25
2 103 102
2 4 27
2 18 106
2 51 50
2 26 25
2 49 48
2 27 24
2 19 28
2 105 53
2 20 29
2 67 35
2 25 29
2 24 28
2 7 30
2 64 22
2 10 31
2 34 67
2 49 38
2 85 54
2 81 16
2 16 32
2 65 20
2 5 33
2 6 64
2 8 103
2 102 50
2 33 32
2 6 34
2 31 66
2 22 35
2 66 29
2 104 100
2 12 105
2 84 55
2 32 35
2 12 40
2 40 15
2 0 41
2 41 8
2 69 28
2 41 40
2 30 69
2 19 42
2 42 20
2 28 43
2 43 29
2 37 42
2 42 43
2 38 43
2 18 44
2 44 21
2 65 66
2 40 44
2 7 45
2 45 10
2 30 46
2 46 31
2 82 83
2 80 83
2 45 46
2 3 47
2 47 11
2 26 83
2 10 65
2 52 27
2 53 24
2 52 53
2 53 49
2 52 48
2 54 32
2 55 33
2 101 100
2 15 102
2 55 54
2 56 34
2 57 31
2 58 29
2 59 35
2 104 105
2 81 82
2 103 100
2 80 81
2 50 58
2 54 59
2 60 28
2 61 43
2 53 60
2 60 61
2 49 61
2 58 61
2 62 30
2 63 46
2 82 32
2 83 33
2 62 63
2 57 63
2 46 70
2 70 43
2 45 71
2 71 42
2 68 69
2 69 70
2 71 70
2 68 71
2 66 70
2 65 71
2 2 72
2 72 23
2 11 73
2 73 21
2 57 74
2 74 58
2 56 75
2 75 59
2 102 101
2 105 101
2 66 74
2 67 75
2 3 76
2 76 18
2 47 77
2 77 44
2 63 78
2 78 61
2 62 79
2 79 60
2 76 77
2 79 78
2 70 78
2 69 79
2 73 77
2 74 78
2 85 84
2 82 85
2 83 84
2 8 86
2 86 1
2 15 87
2 87 17
2 86 87
2 20 88
2 88 22
2 29 89
2 89 35
2 81 88
2 88 89
2 82 89
2 65 90
2 90 64
2 66 91
2 91 67
2 90 91
2 89 91
2 88 90
2 10 92
2 92 6
2 31 93
2 93 34
2 92 93
2 93 91
2 92 90
2 21 94
2 94 23
2 58 95
2 95 59
2 87 94
2 85 95
2 89 95
2 11 96
2 96 2
2 57 97
2 97 56
2 74 98
2 98 75
2 73 99
2 99 72
2 97 98
2 96 99
2 95 98
2 94 99
2 93 97
2 91 98
2 106 60
2 44 107
2 107 61
2 105 106
2 106 107
2 101 107
2 21 108
2 108 58
2 108 107
2 102 108
2 86 109
2 109 84
2 87 110
2 110 85
2 17 111
2 111 54
2 1 112
2 112 55
2 109 110
2 111 110
2 112 111
2 112 109
2 102 110
2 103 109
2 3 113
2 113 62
2 47 114
2 114 63
2 77 115
2 115 78
2 76 116
2 116 79
2 113 114
2 114 115
2 116 115
2 113 116
2 107 115
2 106 116
2 11 117
2 117 57
2 73 118
2 118 74
2 117 114
2 118 115
2 117 118
2 108 118
2 94 119
2 119 95
2 108 119
2 110 119
2 23 120
2 120 59
2 120 119
2 111 120
2 99 121
2 121 98
2 96 122
2 122 97
2 118 121
2 122 121
2 117 122
2 72 123
2 123 75
2 2 124
2 124 56
2 123 121
2 124 123
2 124 122
2 119 121
2 120 123

CELL_TYPES 300
3 
3 
3 
3 
3 
3 
3 
3 
3 
3 
3 
3 
3 
3 
3 
3 
3 
3 
3 
3 
3 
3 
3 
3 
3 
3 
3 
3 
3 
3 
3 
3 
3 
3 
3 
3 
3 
3 
3 
3 
3 
3 
3 
3 
3 
3 
3 
3 
3 
3 
3 
3 
3 
3 
3 
3 
3 
3 
3 
3 
3 
3 
3 
3 
3 
3 
3 
3 
3 
3 
3 
3 
3 
3 
3 
3 
3 
3 
3 
3 
3 
3 
3 
3 
3 
3 
3 
3 
3 
3 
3 
3 
3 
3 
3 
3 
3 
3 
3 
3 
3 
3 
3 
3 
3 
3 
3 
3 
3 
3 
3 
3 
3 
3 
3 
3 
3 
3 
3 
3 
3 
3 
3 
3 
3 
3 
3 
3 
3 
3 
3 
3 
3 
3 
3 
3 
3 
3 
3 
3 
3 
3 
3 
3 
3 
3 
3 
3 
3 
3 
3 
3 
3 
3 
3 
3 
3 
3 
3 
3 
3 
3 
3 
3 
3 
3 
3 
3 
3 
3 
3 
3 
3 
3 
3 
3 
3 
3 
3 
3 
3 
3 
3 
3 
3 
3 
3 
3 
3 
3 
3 
3 
3 
3 
3 
3 
3 
3 
3 
3 
3 
3 
3 
3 
3 
3 
3 
3 
3 
3 
3 
3 
3 
3 
3 
3 
3 
3 
3 
3 
3 
3 
3 
3 
3 
3 
3 
3 
3 
3 
3 
3 
3 
3 
3 
3 
3 
3 
3 
3 
3 
3 
3 
3 
3 
3 
3 
3 
3 
3 
3 
3 
3 
3 
3 
3 
3 
3 
3 
3 
3 
3 
3 
3 
3 
3 
3 
3 
3 
3 
3 
3 
3 
3 
3 
3 
3 
3 
3 
3 
3 
3 
3 
3 
3 
3 
3 
3 
3 
3 
3 
3 
3 
3 
3 
3 
3 
3 
3 
3 
POINT_DATA 125
SCALARS GMDS_ID int 1
LOOKUP_TABLE default
0 1 2 3 4 5 6 7 8 9 10 11 12 13 14 15 16 17 18 19 20 21 22 23 24 25 26 27 28 29 30 31 32 33 34 35 36 37 38 39 40 41 42 43 44 45 46 47 48 49 50 51 52 53 54 55 56 57 58 59 60 61 62 63 64 65 66 67 68 69 70 71 72 73 74 75 76 77 78 79 80 81 82 83 84 85 86 87 88 89 90 91 92 93 94 95 96 97 98 99 100 101 102 103 104 105 106 107 108 109 110 111 112 113 114 115 116 117 118 119 120 121 122 123 124 
SCALARS geom_link_dim int 1
LOOKUP_TABLE default
1 1 1 1 1 1 1 1 2 2 2 2 2 2 3 3 2 2 2 2 3 3 2 2 3 0 3 2 3 0 2 3 3 2 2 3 2 3 0 3 3 2 3 0 3 2 3 2 3 0 0 3 2 3 3 2 2 3 0 3 3 0 2 3 2 3 0 3 2 3 0 3 2 3 0 3 2 3 0 3 2 3 0 3 3 0 2 3 3 0 3 0 2 3 3 0 2 3 0 3 3 0 0 3 2 3 3 0 0 3 0 3 2 2 3 0 3 3 0 0 3 0 3 3 2 
SCALARS geom_link_id int 1
LOOKUP_TABLE default
10 12 16 13 9 11 15 14 19 29 26 31 20 28 18 11 25 30 20 28 18 11 25 30 12 0 10 21 12 0 33 13 17 32 27 17 29 18 0 10 11 19 18 0 11 26 13 31 10 0 0 10 21 12 17 32 27 13 0 17 12 0 33 13 25 18 0 17 28 12 0 18 30 11 0 17 20 11 0 12 29 18 0 10 10 0 19 11 18 0 18 0 26 13 11 0 31 13 0 11 10 -1 -1 10 21 12 12 -1 -1 10 -1 17 32 33 13 -1 12 13 -1 -1 17 -1 13 17 27 


CELL_DATA 300
SCALARS GMDS_ID int 1
LOOKUP_TABLE default
0 1 2 3 4 5 6 7 8 9 10 11 12 13 15 17 18 19 20 21 22 23 24 25 26 27 28 30 31 32 33 34 35 36 37 38 39 40 41 42 43 44 45 46 47 48 49 50 51 52 53 54 55 56 57 58 59 60 61 63 64 65 66 67 68 69 70 71 72 73 74 75 76 77 78 79 80 81 82 83 84 85 86 87 88 89 90 91 92 93 94 95 96 97 98 99 100 101 102 103 104 105 106 107 108 109 110 111 112 113 114 115 117 119 120 121 122 124 126 127 128 129 131 133 135 137 138 139 140 141 142 143 145 147 148 149 150 151 153 155 156 157 158 159 160 161 162 163 164 165 166 167 168 169 170 171 172 173 174 175 176 177 178 180 182 183 184 185 186 187 188 189 190 191 192 194 196 197 198 199 200 201 202 203 204 205 206 207 210 211 212 213 214 215 216 217 218 219 220 221 222 223 224 225 226 227 228 229 230 231 232 233 234 235 237 238 239 240 241 242 243 244 245 246 248 250 251 252 253 254 255 256 257 258 259 260 261 262 263 264 265 266 267 268 269 270 271 272 273 274 275 276 277 278 279 280 281 282 283 284 285 286 287 288 289 290 291 292 293 294 295 296 297 298 299 300 301 302 303 304 305 306 307 308 309 310 311 312 313 314 315 316 317 318 319 320 321 322 323 324 

SCALARS geom_link_dim int 1
LOOKUP_TABLE default
2 0 0 0 2 2 2 0 2 0 0 0 0 0 0 2 0 0 2 2 0 2 0 0 2 0 0 0 0 0 2 0 2 0 0 0 0 0 0 0 0 0 0 2 2 2 2 0 0 2 0 0 0 0 0 0 0 0 0 0 0 2 2 0 0 0 0 0 0 0 2 2 0 0 0 2 0 0 0 0 0 0 0 0 0 2 2 0 0 0 0 0 0 0 0 0 0 0 0 0 0 2 2 0 0 0 0 0 2 2 0 0 2 0 0 0 0 0 2 0 0 0 2 0 0 0 0 0 0 0 0 0 0 0 0 0 0 0 2 0 0 0 0 0 0 0 0 0 0 0 0 0 0 0 2 2 0 0 0 0 0 0 0 0 0 0 2 2 0 0 0 0 0 0 0 0 0 0 0 0 0 0 0 2 2 0 0 0 0 0 0 0 0 0 0 0 0 0 0 0 0 0 2 2 0 0 0 0 0 0 0 0 0 0 0 0 2 2 0 0 0 0 0 0 0 0 0 0 0 0 0 0 0 0 0 0 0 0 0 0 0 0 0 0 0 0 2 2 0 0 0 0 0 0 2 2 0 0 0 0 0 0 0 0 0 0 0 0 0 0 0 0 0 0 0 0 0 0 0 0 0 0 0 0 0 0 0 0 0 0 0 0 0 2 2 0 0 0 0 0 

SCALARS geom_link_id int 1
LOOKUP_TABLE default
28 0 0 0 20 20 28 0 29 0 0 0 0 -1 -1 21 0 -1 29 29 0 28 0 0 28 0 0 0 0 0 25 0 30 -1 0 -1 0 0 0 0 0 0 0 25 29 30 21 0 -1 21 -1 0 0 0 0 0 -1 0 0 0 0 33 25 0 0 0 0 0 0 0 32 25 -1 -1 0 27 0 0 0 -1 -1 0 0 0 0 19 19 0 0 0 0 0 0 0 0 0 0 0 0 0 0 26 26 0 0 0 0 0 31 31 0 0 21 0 0 0 0 0 32 -1 -1 0 27 0 0 0 -1 0 -1 0 0 0 0 0 0 0 0 0 33 0 0 0 0 0 0 0 0 0 0 0 0 0 0 0 30 30 0 0 0 0 0 0 -1 -1 0 0 20 20 0 0 0 0 0 0 0 0 0 0 0 0 0 0 0 19 19 0 0 0 0 0 0 0 0 0 0 0 0 0 0 0 0 0 26 26 0 0 0 0 0 0 0 0 0 0 0 0 31 31 0 0 0 0 0 0 0 0 0 0 0 0 -1 -1 -1 -1 -1 -1 -1 -1 -1 -1 -1 -1 -1 -1 -1 -1 32 32 -1 -1 -1 -1 -1 -1 33 33 -1 -1 -1 -1 -1 -1 -1 -1 -1 -1 -1 -1 -1 -1 -1 -1 -1 -1 -1 -1 -1 -1 -1 -1 -1 -1 -1 -1 -1 -1 -1 -1 -1 -1 -1 -1 -1 27 27 -1 -1 -1 -1 -1 

