# vtk DataFile Version 3.0
Generated by GMDS VTK Writer

ASCII
DATASET UNSTRUCTURED_GRID
POINTS 32 float
10 0 0
-5 0 0
0 0 -5
0 0 0
0 -5 0
0 0 10
0 10 0
0 -5 5
0 0 5
10 0 5
-5 0 5
0 10 5
-5 5 0
0 5 0
0 5 -5
10 5 0
0 5 5
-5 5 5
0 5 10
10 5 5
5 0 5
5 -5 5
5 0 10
5 0 0
5 -5 0
5 0 -5
5 5 -5
5 5 0
5 10 0
5 10 5
5 5 5
5 5 10

CELLS 60 180
2 4 7
2 14 2
2 3 8
2 0 9
2 1 3
2 20 9
2 8 20
2 8 5
2 8 7
2 6 13
2 7 21
2 22 20
2 2 3
2 4 3
2 13 3
2 21 20
2 12 1
2 1 10
2 10 8
2 6 11
2 5 22
2 12 13
2 14 13
2 15 0
2 11 16
2 16 8
2 17 10
2 13 16
2 17 16
2 12 17
2 18 5
2 18 16
2 19 9
2 15 19
2 3 23
2 23 0
2 4 24
2 23 24
2 24 21
2 23 20
2 2 25
2 25 23
2 14 26
2 13 27
2 27 15
2 27 26
2 23 27
2 25 26
2 6 28
2 28 27
2 11 29
2 16 30
2 30 19
2 28 29
2 29 30
2 27 30
2 20 30
2 18 31
2 30 31
2 22 31

CELL_TYPES 60
3 
3 
3 
3 
3 
3 
3 
3 
3 
3 
3 
3 
3 
3 
3 
3 
3 
3 
3 
3 
3 
3 
3 
3 
3 
3 
3 
3 
3 
3 
3 
3 
3 
3 
3 
3 
3 
3 
3 
3 
3 
3 
3 
3 
3 
3 
3 
3 
3 
3 
3 
3 
3 
3 
3 
3 
3 
3 
3 
3 
POINT_DATA 32
SCALARS GMDS_ID int 1
LOOKUP_TABLE default
14 15 19 20 21 22 25 27 28 29 32 34 37 38 39 40 42 43 44 46 48 49 51 52 53 55 56 57 59 60 61 63 
SCALARS geom_link_dim int 1
LOOKUP_TABLE default
1 1 1 1 1 1 1 1 1 1 1 1 1 1 1 1 1 1 1 1 1 1 1 1 1 1 1 1 1 1 1 1 
SCALARS geom_link_id int 1
LOOKUP_TABLE default
29 11 19 12 28 20 4 27 14 30 13 3 5 1 18 21 2 6 16 22 23 32 24 26 31 25 17 10 9 7 8 15 


CELL_DATA 60
SCALARS GMDS_ID int 1
LOOKUP_TABLE default
1 4 5 7 8 17 19 21 28 35 36 38 42 43 51 56 62 68 71 75 79 84 85 88 94 95 97 98 99 100 102 105 109 111 116 117 118 120 121 122 125 128 130 132 133 134 135 136 139 142 144 146 147 148 149 150 151 154 157 159 

SCALARS geom_link_dim int 1
LOOKUP_TABLE default
2 2 2 2 2 2 2 2 2 2 2 2 2 2 2 2 2 2 2 2 2 2 2 2 2 2 2 2 2 2 2 2 2 2 2 2 2 2 2 2 2 2 2 2 2 2 2 2 2 2 2 2 2 2 2 2 2 2 2 2 

SCALARS geom_link_id int 1
LOOKUP_TABLE default
40 50 8 57 27 20 1 25 45 51 17 28 26 52 2 34 60 54 19 43 49 15 18 56 42 11 58 9 23 48 31 44 46 22 4 14 55 16 59 7 47 13 41 12 39 24 6 53 21 33 30 5 38 32 29 3 10 37 35 36 

