# vtk DataFile Version 3.0
Generated by GMDS VTK Writer

ASCII
DATASET UNSTRUCTURED_GRID
POINTS 52 float
5 0 0
5 0 -5
10 10 -5
-5 -5 10
10 -5 10
-5 5 10
10 5 10
10 5 -5
-5 -5 -8.88178419700125e-16
10 -5 -8.88178419700125e-16
10 5 0
-5 5 0
10 10 -8.88178419700125e-16
-8.88178419700125e-16 -5 -5
0 5 -5
0 5 0
0 -5 0
0 5 10
-8.88178419700125e-16 -5 10
-8.88178419700125e-16 10 -5
0 10 0
-5 0 0
0 0 0
0 0 -5
10 0 0
-5 -4.44089209850063e-16 10
0 0 10
10 -4.44089209850063e-16 10
-5 5 5
0 5 5
0 10 5
10 5 5
10 10 5
-5 -5 5
0 -5 5
-2.22044604925031e-16 0 5
-5 0 5
10 -5 5
10 0 5
5 5 0
5 5 -5
5 -5 -5
5 -5 0
5 5 5
5 10 5
5 10 0
5 5 10
5 10 -5
5 -5 10
5 0 10
5 0 5
5 -5 5

CELLS 111 333
2 14 40
2 15 39
2 23 14
2 41 42
2 8 21
2 39 10
2 16 22
2 11 15
2 0 24
2 30 20
2 22 0
2 17 29
2 5 28
2 7 2
2 21 11
2 22 15
2 7 10
2 39 0
2 13 23
2 2 12
2 0 1
2 23 1
2 40 39
2 12 10
2 8 16
2 29 15
2 14 15
2 13 16
2 5 17
2 3 18
2 13 41
2 28 11
2 16 42
2 19 14
2 15 20
2 19 20
2 40 1
2 21 22
2 23 22
2 9 24
2 24 10
2 3 25
2 25 5
2 18 26
2 26 17
2 42 0
2 42 9
2 25 26
2 4 27
2 27 6
2 40 7
2 28 29
2 29 30
2 6 31
2 31 10
2 32 12
2 32 31
2 3 33
2 33 8
2 18 34
2 34 16
2 26 35
2 35 22
2 25 36
2 36 21
2 33 34
2 34 35
2 36 35
2 33 36
2 29 35
2 28 36
2 4 37
2 37 9
2 27 38
2 38 24
2 37 38
2 31 38
2 41 1
2 29 43
2 43 31
2 30 44
2 44 32
2 20 45
2 45 12
2 43 44
2 45 44
2 39 45
2 39 43
2 17 46
2 46 6
2 46 43
2 19 47
2 47 2
2 40 47
2 47 45
2 18 48
2 48 4
2 26 49
2 49 27
2 35 50
2 50 38
2 34 51
2 51 37
2 48 49
2 49 50
2 51 50
2 48 51
2 0 50
2 42 51
2 46 49
2 43 50

CELL_TYPES 111
3 
3 
3 
3 
3 
3 
3 
3 
3 
3 
3 
3 
3 
3 
3 
3 
3 
3 
3 
3 
3 
3 
3 
3 
3 
3 
3 
3 
3 
3 
3 
3 
3 
3 
3 
3 
3 
3 
3 
3 
3 
3 
3 
3 
3 
3 
3 
3 
3 
3 
3 
3 
3 
3 
3 
3 
3 
3 
3 
3 
3 
3 
3 
3 
3 
3 
3 
3 
3 
3 
3 
3 
3 
3 
3 
3 
3 
3 
3 
3 
3 
3 
3 
3 
3 
3 
3 
3 
3 
3 
3 
3 
3 
3 
3 
3 
3 
3 
3 
3 
3 
3 
3 
3 
3 
3 
3 
3 
3 
3 
3 
POINT_DATA 52
SCALARS GMDS_ID int 1
LOOKUP_TABLE default
0 1 2 4 7 9 10 11 12 13 14 15 16 18 19 20 21 22 23 24 25 28 29 30 31 33 34 35 37 38 39 40 41 42 43 44 45 46 47 48 49 50 51 52 53 54 55 57 58 59 60 61 
SCALARS geom_link_dim int 1
LOOKUP_TABLE default
1 1 0 0 0 0 0 0 0 0 1 1 0 0 1 1 1 1 0 0 1 1 1 1 1 0 1 0 1 1 1 1 0 0 1 0 1 0 1 1 1 0 1 1 1 1 1 0 0 1 0 1 
SCALARS geom_link_id int 1
LOOKUP_TABLE default
26 25 -1 -1 -1 -1 -1 -1 -1 -1 21 5 -1 -1 18 1 28 16 -1 -1 4 11 12 19 29 -1 20 -1 6 2 3 22 -1 -1 27 0 13 -1 30 10 17 -1 31 8 7 9 15 -1 -1 24 0 32 


CELL_DATA 111
SCALARS GMDS_ID int 1
LOOKUP_TABLE default
0 1 3 4 5 6 7 8 10 12 13 14 16 19 21 23 24 25 30 32 33 34 35 36 39 41 42 44 45 47 49 50 51 56 57 58 62 63 64 66 67 73 74 75 76 77 78 79 80 81 82 84 85 87 88 90 92 94 95 96 97 98 99 100 101 102 103 104 105 106 107 108 109 110 111 114 115 116 117 118 119 120 121 122 123 124 125 126 127 128 133 134 135 136 137 138 139 140 141 142 143 144 145 146 147 148 149 150 151 152 153 

SCALARS geom_link_dim int 1
LOOKUP_TABLE default
2 0 2 0 0 2 2 2 2 2 0 2 0 0 2 2 0 2 0 0 2 2 2 0 0 2 2 0 0 0 0 2 2 0 2 0 2 2 2 0 2 0 0 0 2 2 0 0 0 0 0 2 2 0 2 0 0 0 0 0 2 0 0 0 2 0 0 0 0 0 2 0 0 0 2 0 2 0 2 2 2 0 2 0 2 2 0 0 2 0 2 0 0 0 0 0 0 2 0 0 0 2 0 0 0 0 0 0 2 2 0 

SCALARS geom_link_id int 1
LOOKUP_TABLE default
41 0 50 0 0 39 52 15 14 43 0 44 0 0 60 2 0 6 0 0 13 47 24 0 0 9 18 0 0 0 0 48 55 0 51 0 53 27 26 0 56 0 0 0 31 16 0 0 0 0 0 23 42 0 22 0 0 0 0 0 40 0 0 0 54 0 0 0 0 0 58 0 0 0 57 0 46 0 5 38 30 0 21 0 29 32 0 0 37 0 35 0 0 0 0 0 0 49 0 0 0 17 0 0 0 0 0 0 59 36 0 

