# vtk DataFile Version 3.0
Generated by GMDS VTK Writer

ASCII
DATASET UNSTRUCTURED_GRID
POINTS 50 float
5 0 0
5 0 -5
10 10 -5
-5 -5 10
10 -5 10
-5 5 10
10 5 10
10 5 -5
-5 -5 -8.88178419700125e-16
10 5 0
-5 5 0
10 10 -8.88178419700125e-16
-8.88178419700125e-16 -5 -5
0 5 -5
0 5 0
0 -5 0
0 5 10
-8.88178419700125e-16 -5 10
-8.88178419700125e-16 10 -5
0 10 0
-5 0 0
0 0 0
0 0 -5
10 0 0
-5 -4.44089209850063e-16 10
0 0 10
10 -4.44089209850063e-16 10
-5 5 5
0 5 5
0 10 5
10 5 5
-5 -5 5
0 -5 5
0 0 5
-5 0 5
10 -5 5
10 0 5
5 5 0
5 5 -5
5 -5 -5
5 -5 0
5 5 5
5 10 5
5 10 0
5 5 10
5 10 -5
5 -5 10
5 0 10
5 0 5
5 -5 5

CELLS 104 312
2 13 38
2 14 37
2 22 13
2 39 40
2 8 20
2 37 9
2 15 21
2 10 14
2 0 23
2 29 19
2 21 0
2 16 28
2 5 27
2 7 2
2 20 10
2 21 14
2 7 9
2 37 0
2 12 22
2 2 11
2 0 1
2 22 1
2 38 37
2 11 9
2 8 15
2 28 14
2 13 14
2 12 15
2 5 16
2 3 17
2 12 39
2 27 10
2 15 40
2 18 13
2 14 19
2 18 19
2 38 1
2 20 21
2 22 21
2 23 9
2 3 24
2 24 5
2 17 25
2 25 16
2 40 0
2 24 25
2 4 26
2 26 6
2 38 7
2 27 28
2 28 29
2 6 30
2 30 9
2 3 31
2 31 8
2 17 32
2 32 15
2 25 33
2 33 21
2 24 34
2 34 20
2 31 32
2 32 33
2 34 33
2 31 34
2 28 33
2 27 34
2 4 35
2 26 36
2 36 23
2 35 36
2 30 36
2 39 1
2 28 41
2 41 30
2 29 42
2 19 43
2 43 11
2 41 42
2 43 42
2 37 43
2 37 41
2 16 44
2 44 6
2 44 41
2 18 45
2 45 2
2 38 45
2 45 43
2 46 4
2 25 47
2 47 26
2 33 48
2 48 36
2 32 49
2 49 35
2 46 47
2 47 48
2 49 48
2 46 49
2 0 48
2 40 49
2 44 47
2 41 48

CELL_TYPES 104
3 
3 
3 
3 
3 
3 
3 
3 
3 
3 
3 
3 
3 
3 
3 
3 
3 
3 
3 
3 
3 
3 
3 
3 
3 
3 
3 
3 
3 
3 
3 
3 
3 
3 
3 
3 
3 
3 
3 
3 
3 
3 
3 
3 
3 
3 
3 
3 
3 
3 
3 
3 
3 
3 
3 
3 
3 
3 
3 
3 
3 
3 
3 
3 
3 
3 
3 
3 
3 
3 
3 
3 
3 
3 
3 
3 
3 
3 
3 
3 
3 
3 
3 
3 
3 
3 
3 
3 
3 
3 
3 
3 
3 
3 
3 
3 
3 
3 
3 
3 
3 
3 
3 
3 
POINT_DATA 50
SCALARS GMDS_ID int 1
LOOKUP_TABLE default
0 1 2 4 7 9 10 11 12 14 15 16 18 19 20 21 22 23 24 25 28 29 30 31 33 34 35 37 38 39 40 42 43 44 45 46 47 48 49 50 51 52 53 54 55 57 58 59 60 61 
SCALARS geom_link_dim int 1
LOOKUP_TABLE default
1 1 0 0 0 0 0 0 0 1 1 0 0 1 1 1 1 0 0 1 1 1 1 1 0 1 0 1 1 1 1 0 1 1 1 0 1 1 1 0 1 1 1 1 1 0 0 1 1 1 
SCALARS geom_link_id int 1
LOOKUP_TABLE default
26 25 -1 -1 -1 -1 -1 -1 -1 21 5 -1 -1 18 1 28 16 -1 -1 4 11 12 19 29 -1 20 -1 6 2 3 22 -1 27 14 13 -1 30 10 17 -1 31 8 7 9 15 -1 -1 24 23 32 


CELL_DATA 104
SCALARS GMDS_ID int 1
LOOKUP_TABLE default
0 1 3 4 5 6 7 8 10 12 13 14 16 19 21 23 24 25 30 32 33 34 35 36 39 41 42 44 45 47 49 50 51 56 57 58 62 63 64 67 73 74 75 76 77 79 80 81 82 84 85 87 88 94 95 96 97 98 99 100 101 102 103 104 105 106 107 108 110 111 114 115 116 117 118 119 121 122 123 124 125 126 127 128 133 134 135 136 137 139 140 141 142 143 144 145 146 147 148 149 150 151 152 153 

SCALARS geom_link_dim int 1
LOOKUP_TABLE default
2 0 2 0 0 2 2 2 2 2 0 2 0 0 2 2 0 2 0 0 2 2 2 0 0 2 2 0 0 0 0 2 2 0 2 0 2 2 2 2 0 0 0 2 2 0 0 0 0 2 2 0 2 0 0 0 2 2 0 0 2 0 2 0 0 0 2 0 0 2 0 2 0 2 2 2 2 0 2 2 2 2 2 0 2 0 0 0 0 0 2 0 2 2 2 0 0 2 2 0 2 2 2 0 

SCALARS geom_link_id int 1
LOOKUP_TABLE default
41 0 50 0 0 39 52 15 14 43 0 44 0 0 60 2 0 6 0 0 13 47 24 0 0 9 18 0 0 0 0 48 55 0 51 0 53 27 26 56 0 0 0 31 16 0 0 0 0 23 42 0 22 0 0 0 40 25 0 0 54 0 45 0 0 0 58 0 0 57 0 46 0 5 38 30 21 0 29 32 33 3 37 0 35 0 0 0 0 0 49 0 1 20 17 0 0 28 34 0 7 59 36 0 

