# vtk DataFile Version 3.0
Generated by GMDS VTK Writer

ASCII
DATASET UNSTRUCTURED_GRID
POINTS 216 float
0 0 0
0 10 0
10 10 0
10 0 0
0 0 10
0 10 10
10 10 10
10 0 10
0 4 0
0 4 10
10 4 10
10 4 0
1 0 0
1 0 10
1 4 10
1 4 0
1 10 10
1 10 0
4 0 0
4 0 10
4 4 10
4 4 0
4 10 10
4 10 0
1 0 6
1 4 6
0 4 6
0 0 6
4 0 6
4 4 6
10 0 6
10 4 6
1 10 6
0 10 6
10 10 6
4 10 6
0 1 10
1 1 10
1 1 6
0 1 6
1 1 0
0 1 0
4 1 10
4 1 6
4 1 0
10 1 10
10 1 6
10 1 0
0 1 4
1 1 4
1 4 4
0 4 4
0 0 4
1 0 4
1 10 4
0 10 4
10 10 4
10 4 4
4 4 4
4 10 4
4 0 4
4 1 4
10 0 4
10 1 4
6 10 10
6 4 10
6 4 6
6 10 6
6 0 10
6 0 6
6 1 6
6 1 10
6 10 0
6 4 0
6 4 4
6 10 4
6 0 0
6 1 0
6 1 4
6 0 4
0 8 10
1 8 10
1 8 6
0 8 6
0 8 4
1 8 4
0 8 0
1 8 0
4 8 10
4 8 6
6 8 10
6 8 6
10 8 10
10 8 6
4 8 0
4 8 4
10 8 0
10 8 4
6 8 4
6 8 0
0 1 1
1 1 1
1 4 1
0 4 1
0 0 1
1 0 1
4 0 1
4 1 1
4 4 1
0 8 1
1 8 1
1 10 1
0 10 1
10 0 1
10 1 1
6 1 1
6 0 1
10 4 1
6 4 1
4 8 1
4 10 1
6 8 1
10 8 1
6 10 1
10 10 1
1 0 8
4 0 8
4 1 8
1 1 8
6 4 8
6 1 8
4 4 8
10 4 8
10 1 8
1 4 8
4 8 8
1 8 8
0 1 8
0 4 8
0 0 8
6 0 8
10 0 8
0 8 8
1 10 8
0 10 8
4 10 8
6 8 8
6 10 8
10 8 8
10 10 8
0 6 8
1 6 8
1 6 6
0 6 6
0 6 10
1 6 10
1 6 1
4 6 1
4 6 4
1 6 4
1 6 0
4 6 0
0 6 4
4 6 8
4 6 6
4 6 10
0 6 1
10 6 8
6 6 8
6 6 6
10 6 6
10 6 10
6 6 10
0 6 0
10 6 4
6 6 4
10 6 0
6 6 0
6 6 1
10 6 1
8 0 4
8 1 4
8 1 6
8 0 6
8 4 8
8 1 8
8 4 6
8 4 4
8 4 10
8 1 10
8 8 6
8 8 4
8 10 4
8 10 6
8 0 0
8 1 0
8 1 1
8 0 1
8 4 0
8 4 1
8 10 0
8 8 0
8 8 1
8 10 1
8 0 10
8 0 8
8 10 10
8 8 10
8 8 8
8 10 8
8 6 8
8 6 6
8 6 10
8 6 4
8 6 1
8 6 0

CELLS 540 1620
2 13 4
2 185 130
2 153 83
2 20 14
2 12 0
2 18 12
2 183 182
2 4 36
2 13 37
2 24 38
2 27 39
2 50 49
2 100 48
2 10 132
2 40 101
2 45 133
2 0 104
2 48 39
2 41 100
2 36 9
2 184 129
2 39 26
2 19 13
2 152 153
2 14 9
2 68 19
2 15 8
2 36 37
2 131 127
2 152 82
2 51 48
2 14 155
2 16 5
2 25 152
2 17 1
2 101 49
2 37 14
2 103 51
2 186 66
2 21 15
2 38 39
2 50 25
2 26 153
2 51 26
2 183 180
2 22 16
2 80 5
2 23 17
2 104 52
2 38 25
2 103 102
2 134 151
2 18 106
2 51 50
2 26 25
2 49 48
2 27 24
2 151 136
2 105 53
2 58 158
2 67 35
2 127 130
2 25 29
2 24 28
2 138 150
2 64 22
2 154 150
2 49 38
2 85 54
2 81 16
2 9 154
2 65 20
2 151 150
2 8 103
2 102 50
2 33 32
2 155 81
2 154 80
2 66 29
2 104 100
2 12 105
2 84 55
2 32 35
2 12 40
2 40 15
2 0 41
2 41 8
2 69 28
2 41 40
2 19 42
2 42 20
2 28 43
2 43 29
2 37 42
2 102 156
2 38 43
2 18 44
2 44 21
2 158 95
2 40 44
2 7 45
2 45 10
2 30 46
2 46 31
2 82 83
2 152 151
2 155 151
2 3 47
2 47 11
2 132 184
2 131 129
2 52 27
2 132 31
2 53 24
2 52 53
2 53 49
2 52 48
2 127 43
2 54 32
2 42 127
2 55 33
2 101 100
2 15 102
2 55 54
2 128 38
2 56 34
2 126 127
2 57 31
2 20 131
2 58 29
2 37 128
2 59 35
2 104 105
2 153 150
2 103 100
2 80 81
2 50 58
2 54 59
2 131 29
2 60 28
2 129 130
2 61 43
2 53 60
2 60 61
2 49 61
2 58 61
2 125 24
2 62 30
2 19 126
2 63 46
2 82 32
2 83 33
2 62 63
2 57 63
2 70 43
2 71 42
2 150 142
2 69 70
2 156 110
2 68 71
2 66 70
2 65 71
2 72 23
2 73 21
2 74 58
2 75 59
2 102 101
2 130 70
2 105 101
2 125 126
2 66 74
2 67 75
2 76 18
2 77 44
2 78 61
2 79 60
2 76 77
2 71 130
2 79 78
2 13 125
2 70 78
2 69 79
2 73 77
2 74 78
2 85 84
2 82 85
2 83 84
2 62 180
2 86 1
2 182 70
2 87 17
2 86 87
2 65 129
2 126 28
2 184 185
2 88 22
2 186 187
2 89 35
2 81 88
2 108 157
2 82 89
2 182 185
2 90 64
2 189 71
2 91 67
2 157 119
2 89 91
2 88 90
2 186 182
2 92 6
2 45 189
2 93 34
2 154 155
2 30 183
2 94 23
2 187 181
2 95 59
2 87 94
2 129 66
2 85 95
2 89 95
2 63 181
2 96 2
2 10 188
2 97 56
2 188 65
2 98 75
2 181 78
2 99 72
2 128 127
2 125 128
2 95 98
2 94 99
2 93 97
2 91 98
2 106 60
2 44 107
2 107 61
2 105 106
2 106 107
2 101 107
2 21 108
2 108 58
2 108 107
2 102 108
2 86 109
2 109 84
2 87 110
2 110 85
2 17 111
2 111 54
2 1 112
2 112 55
2 109 110
2 111 110
2 112 111
2 112 109
2 182 181
2 180 181
2 3 113
2 113 62
2 47 114
2 114 63
2 77 115
2 115 78
2 76 116
2 116 79
2 113 114
2 116 115
2 107 115
2 106 116
2 11 117
2 117 57
2 73 118
2 118 74
2 117 114
2 118 115
2 108 118
2 94 119
2 119 95
2 183 69
2 110 119
2 23 120
2 120 59
2 120 119
2 111 120
2 99 121
2 121 98
2 96 122
2 122 97
2 46 182
2 180 79
2 72 123
2 123 75
2 2 124
2 124 56
2 123 121
2 124 122
2 119 121
2 120 123
2 133 46
2 132 133
2 14 134
2 134 25
2 88 135
2 135 89
2 81 136
2 136 82
2 134 131
2 57 187
2 136 135
2 31 186
2 36 137
2 137 39
2 9 138
2 138 26
2 137 128
2 134 128
2 138 134
2 138 137
2 4 139
2 139 27
2 139 125
2 139 137
2 68 140
2 140 69
2 140 130
2 126 140
2 7 141
2 141 30
2 141 133
2 80 142
2 142 83
2 16 143
2 143 32
2 5 144
2 144 33
2 142 136
2 143 136
2 144 143
2 144 142
2 133 185
2 22 145
2 145 35
2 145 135
2 143 145
2 90 146
2 146 91
2 187 74
2 135 146
2 64 147
2 147 67
2 147 146
2 145 147
2 92 148
2 148 93
2 186 184
2 6 149
2 149 34
2 149 148
2 50 159
2 159 85
2 156 157
2 158 157
2 159 158
2 159 156
2 15 160
2 160 87
2 21 161
2 161 94
2 160 161
2 161 157
2 160 156
2 51 162
2 162 84
2 159 162
2 152 159
2 153 162
2 131 163
2 163 135
2 29 164
2 164 89
2 163 151
2 164 163
2 152 164
2 164 158
2 20 165
2 165 88
2 155 165
2 165 163
2 103 166
2 166 109
2 156 166
2 162 166
2 132 167
2 167 148
2 129 168
2 168 146
2 66 169
2 169 91
2 31 170
2 170 93
2 169 168
2 170 167
2 10 171
2 171 92
2 65 172
2 172 90
2 172 168
2 171 167
2 8 173
2 173 86
2 173 160
2 173 166
2 168 163
2 164 169
2 165 172
2 57 174
2 174 97
2 74 175
2 175 98
2 170 174
2 169 175
2 158 175
2 11 176
2 176 96
2 73 177
2 177 99
2 118 178
2 178 121
2 117 179
2 179 122
2 177 178
2 176 179
2 175 178
2 174 179
2 161 177
2 157 178
2 188 189
2 189 185
2 188 184
2 93 190
2 190 91
2 97 191
2 191 98
2 56 192
2 192 75
2 34 193
2 193 67
2 190 191
2 192 191
2 193 192
2 193 190
2 3 194
2 194 76
2 47 195
2 195 77
2 114 196
2 196 115
2 113 197
2 197 116
2 194 195
2 195 196
2 197 196
2 194 197
2 181 196
2 180 197
2 11 198
2 198 73
2 117 199
2 199 118
2 198 195
2 196 199
2 198 199
2 187 199
2 2 200
2 200 72
2 96 201
2 201 99
2 122 202
2 202 121
2 124 203
2 203 123
2 200 201
2 201 202
2 202 203
2 200 203
2 191 202
2 192 203
2 7 204
2 204 68
2 141 205
2 205 140
2 204 189
2 185 205
2 204 205
2 183 205
2 6 206
2 206 64
2 92 207
2 207 90
2 148 208
2 208 146
2 149 209
2 209 147
2 206 207
2 207 208
2 208 209
2 206 209
2 190 208
2 193 209
2 167 210
2 210 168
2 170 211
2 211 169
2 184 210
2 210 211
2 186 211
2 208 210
2 190 211
2 171 212
2 212 172
2 210 212
2 188 212
2 207 212
2 174 213
2 213 175
2 187 213
2 211 213
2 191 213
2 179 214
2 214 178
2 176 215
2 215 177
2 199 214
2 215 214
2 198 215
2 202 214
2 201 215
2 213 214

CELL_TYPES 540
3 
3 
3 
3 
3 
3 
3 
3 
3 
3 
3 
3 
3 
3 
3 
3 
3 
3 
3 
3 
3 
3 
3 
3 
3 
3 
3 
3 
3 
3 
3 
3 
3 
3 
3 
3 
3 
3 
3 
3 
3 
3 
3 
3 
3 
3 
3 
3 
3 
3 
3 
3 
3 
3 
3 
3 
3 
3 
3 
3 
3 
3 
3 
3 
3 
3 
3 
3 
3 
3 
3 
3 
3 
3 
3 
3 
3 
3 
3 
3 
3 
3 
3 
3 
3 
3 
3 
3 
3 
3 
3 
3 
3 
3 
3 
3 
3 
3 
3 
3 
3 
3 
3 
3 
3 
3 
3 
3 
3 
3 
3 
3 
3 
3 
3 
3 
3 
3 
3 
3 
3 
3 
3 
3 
3 
3 
3 
3 
3 
3 
3 
3 
3 
3 
3 
3 
3 
3 
3 
3 
3 
3 
3 
3 
3 
3 
3 
3 
3 
3 
3 
3 
3 
3 
3 
3 
3 
3 
3 
3 
3 
3 
3 
3 
3 
3 
3 
3 
3 
3 
3 
3 
3 
3 
3 
3 
3 
3 
3 
3 
3 
3 
3 
3 
3 
3 
3 
3 
3 
3 
3 
3 
3 
3 
3 
3 
3 
3 
3 
3 
3 
3 
3 
3 
3 
3 
3 
3 
3 
3 
3 
3 
3 
3 
3 
3 
3 
3 
3 
3 
3 
3 
3 
3 
3 
3 
3 
3 
3 
3 
3 
3 
3 
3 
3 
3 
3 
3 
3 
3 
3 
3 
3 
3 
3 
3 
3 
3 
3 
3 
3 
3 
3 
3 
3 
3 
3 
3 
3 
3 
3 
3 
3 
3 
3 
3 
3 
3 
3 
3 
3 
3 
3 
3 
3 
3 
3 
3 
3 
3 
3 
3 
3 
3 
3 
3 
3 
3 
3 
3 
3 
3 
3 
3 
3 
3 
3 
3 
3 
3 
3 
3 
3 
3 
3 
3 
3 
3 
3 
3 
3 
3 
3 
3 
3 
3 
3 
3 
3 
3 
3 
3 
3 
3 
3 
3 
3 
3 
3 
3 
3 
3 
3 
3 
3 
3 
3 
3 
3 
3 
3 
3 
3 
3 
3 
3 
3 
3 
3 
3 
3 
3 
3 
3 
3 
3 
3 
3 
3 
3 
3 
3 
3 
3 
3 
3 
3 
3 
3 
3 
3 
3 
3 
3 
3 
3 
3 
3 
3 
3 
3 
3 
3 
3 
3 
3 
3 
3 
3 
3 
3 
3 
3 
3 
3 
3 
3 
3 
3 
3 
3 
3 
3 
3 
3 
3 
3 
3 
3 
3 
3 
3 
3 
3 
3 
3 
3 
3 
3 
3 
3 
3 
3 
3 
3 
3 
3 
3 
3 
3 
3 
3 
3 
3 
3 
3 
3 
3 
3 
3 
3 
3 
3 
3 
3 
3 
3 
3 
3 
3 
3 
3 
3 
3 
3 
3 
3 
3 
3 
3 
3 
3 
3 
3 
3 
3 
3 
3 
3 
3 
3 
3 
3 
3 
3 
3 
3 
3 
3 
3 
3 
3 
3 
3 
3 
3 
3 
3 
3 
3 
3 
3 
3 
3 
3 
3 
3 
3 
3 
3 
3 
3 
3 
3 
3 
3 
3 
3 
3 
3 
3 
3 
3 
3 
3 
3 
3 
3 
3 
3 
3 
3 
3 
3 
3 
3 
3 
3 
3 
3 
3 
3 
3 
3 
3 
3 
3 
3 
3 
3 
POINT_DATA 216
SCALARS GMDS_ID int 1
LOOKUP_TABLE default
0 1 2 3 4 5 6 7 8 9 10 11 12 13 14 15 16 17 18 19 20 21 22 23 24 25 26 27 28 29 30 31 32 33 34 35 36 37 38 39 40 41 42 43 44 45 46 47 48 49 50 51 52 53 54 55 56 57 58 59 60 61 62 63 64 65 66 67 68 69 70 71 72 73 74 75 76 77 78 79 80 81 82 83 84 85 86 87 88 89 90 91 92 93 94 95 96 97 98 99 100 101 102 103 104 105 106 107 108 109 110 111 112 113 114 115 116 117 118 119 120 121 122 123 124 125 126 127 128 129 130 131 132 133 134 135 136 137 138 139 140 141 142 143 144 145 146 147 148 149 150 151 152 153 154 155 156 157 158 159 160 161 162 163 164 165 166 167 168 169 170 171 172 173 174 175 176 177 178 179 180 181 182 183 184 185 186 187 188 189 190 191 192 193 194 195 196 197 198 199 200 201 202 203 204 205 206 207 208 209 210 211 212 213 214 215 
SCALARS geom_link_dim int 1
LOOKUP_TABLE default
1 1 1 1 1 1 1 1 2 2 2 2 2 2 3 3 2 2 2 2 3 3 2 2 3 4 3 2 3 4 2 3 3 2 2 3 2 3 4 3 3 2 3 4 3 2 3 2 3 1 1 3 2 3 3 2 2 3 1 3 3 1 2 3 2 3 4 3 2 3 4 3 2 3 4 3 2 3 4 3 2 3 4 3 3 4 2 3 3 4 3 1 2 3 3 4 2 3 4 3 3 1 1 3 2 3 3 1 1 3 4 3 2 2 3 4 3 3 4 4 3 4 3 3 2 3 3 4 4 4 4 4 3 3 4 4 4 3 3 2 3 2 3 3 2 3 1 3 3 2 3 4 4 3 2 3 4 4 4 4 3 3 3 4 4 3 3 3 1 1 3 2 3 2 3 4 2 3 4 3 3 4 4 3 4 4 4 4 3 3 1 4 3 3 2 3 4 3 3 4 2 3 4 3 2 3 2 3 1 3 1 1 3 4 4 3 
SCALARS geom_link_id int 1
LOOKUP_TABLE default
10 12 16 13 9 11 15 14 19 29 26 31 20 28 18 11 25 30 20 28 18 11 25 30 12 1 10 21 12 1 33 13 17 32 27 17 29 18 1 10 11 19 18 1 11 26 13 31 10 17 19 10 21 12 17 32 27 13 23 17 12 22 33 13 25 18 1 17 28 12 1 18 30 11 1 17 20 11 1 12 29 18 1 10 10 1 19 11 18 1 18 4 26 13 11 1 31 13 1 11 10 18 20 10 21 12 12 21 24 10 1 17 32 33 13 1 12 13 1 1 17 1 13 17 27 12 12 1 1 1 1 1 13 13 1 1 1 10 10 21 12 33 10 17 32 17 3 17 13 27 10 1 1 10 29 18 1 1 1 1 11 11 10 1 1 18 10 13 1 2 13 26 18 19 13 1 31 11 1 13 12 1 1 12 1 1 1 1 18 18 8 1 17 17 20 11 1 12 11 1 30 11 1 17 28 12 25 18 7 17 5 6 18 1 1 11 


CELL_DATA 540
SCALARS GMDS_ID int 1
LOOKUP_TABLE default
0 1 2 3 4 5 7 8 9 10 11 12 13 14 15 16 17 18 19 20 21 22 23 24 25 26 27 28 29 30 31 32 33 34 35 36 37 38 39 40 41 42 43 44 45 46 47 48 49 50 51 52 53 54 55 56 57 58 59 60 61 62 63 64 65 66 67 69 70 71 72 73 74 76 77 78 79 81 82 83 84 85 86 87 88 89 90 91 92 94 95 96 97 98 99 100 101 102 103 104 105 106 107 108 109 110 111 112 113 114 116 117 118 119 120 121 122 123 124 125 126 127 128 129 130 131 132 133 134 135 136 137 138 139 140 141 142 143 144 145 146 147 148 149 150 151 152 153 154 155 156 157 158 159 161 163 164 165 166 167 168 169 171 173 175 177 178 179 180 181 182 183 185 187 189 191 192 193 194 195 196 197 198 199 200 201 202 203 204 205 206 207 208 209 210 211 212 213 214 215 216 217 218 219 220 221 222 223 224 225 226 227 228 231 232 233 234 235 236 237 238 239 240 241 242 243 244 245 246 247 249 251 252 253 254 255 256 257 258 259 260 261 262 263 264 265 266 267 268 269 270 271 272 273 274 275 276 277 278 279 280 281 282 283 284 285 286 287 289 291 292 293 294 295 296 297 298 300 301 302 303 304 305 306 307 308 309 310 311 312 313 315 316 317 318 319 320 322 323 324 325 326 329 330 331 332 333 334 335 336 337 338 339 340 341 342 343 344 345 346 347 348 349 350 351 352 353 354 355 356 357 359 360 361 362 363 364 365 366 367 368 369 370 371 372 373 374 375 376 377 378 379 380 381 382 383 385 386 387 389 390 391 392 393 394 395 396 397 398 399 400 401 402 403 404 405 406 407 408 409 410 411 412 413 414 415 416 417 418 419 420 421 422 423 424 425 426 427 428 429 430 431 433 435 436 437 438 439 441 442 443 444 445 446 447 448 449 450 451 452 453 454 456 457 458 459 460 461 462 463 464 465 467 469 470 471 472 473 474 475 476 477 478 479 480 481 482 483 484 485 486 487 488 489 490 491 492 493 494 495 496 497 498 499 500 501 502 503 504 505 506 507 508 509 510 511 512 513 514 515 516 517 518 519 520 521 522 523 524 525 526 527 528 529 530 531 532 533 534 535 536 537 538 539 540 541 542 543 544 545 546 547 548 549 550 551 552 553 554 555 556 557 558 559 560 561 562 563 564 565 566 567 568 569 570 571 572 573 574 575 

SCALARS geom_link_dim int 1
LOOKUP_TABLE default
2 4 3 3 2 2 4 2 3 4 3 2 3 3 4 3 2 3 3 2 4 3 2 4 3 2 3 3 4 4 3 3 2 4 2 2 3 3 4 3 4 4 3 3 3 2 2 2 2 4 4 4 3 4 4 4 3 4 3 4 3 4 4 3 3 2 3 4 4 3 2 3 4 3 2 3 3 2 4 3 3 3 3 3 3 2 2 3 3 3 3 4 4 3 4 4 3 3 4 3 2 2 3 3 4 4 4 2 2 4 4 2 3 3 3 4 3 4 3 4 2 4 4 3 4 2 4 3 4 4 4 3 3 3 3 3 2 3 4 3 4 4 3 4 2 2 3 2 3 3 4 3 3 3 4 3 3 4 4 3 4 3 2 3 4 3 2 4 4 3 4 3 2 3 4 3 3 4 4 3 4 3 3 4 4 4 3 3 2 4 3 3 4 3 4 3 4 4 3 4 4 4 3 3 4 4 4 3 4 2 3 3 3 3 3 4 4 3 4 4 4 4 2 3 3 3 4 4 3 4 4 4 3 3 4 3 4 2 3 4 2 4 2 2 2 3 3 4 4 3 3 2 2 4 4 3 3 4 4 2 2 3 3 4 4 3 3 3 4 4 3 3 3 4 4 3 4 4 4 4 3 4 3 3 4 3 4 4 3 3 4 3 3 3 2 2 4 3 4 3 3 3 4 4 4 4 4 4 4 4 4 4 3 3 3 3 4 4 4 3 2 2 3 3 3 3 4 3 2 2 3 3 3 3 3 2 2 4 4 3 3 4 3 3 4 3 4 2 4 4 3 3 4 3 3 3 4 2 2 3 4 4 4 4 4 4 3 3 3 3 3 4 4 3 3 4 4 3 4 4 4 4 4 4 4 4 3 3 3 4 3 3 4 3 3 3 4 2 4 2 3 3 2 3 2 2 3 3 4 3 2 2 3 3 4 4 3 3 3 4 4 3 4 4 2 2 3 3 4 4 3 3 4 3 4 3 3 4 3 4 4 4 2 4 4 3 3 3 3 4 4 3 4 2 2 3 3 4 4 3 3 3 4 4 3 4 3 3 3 4 4 3 4 4 4 2 2 3 3 4 4 3 3 3 4 4 3 4 3 2 2 3 3 3 4 3 3 2 2 3 3 4 2 3 3 3 4 4 3 2 3 4 2 4 2 4 2 4 2 2 3 3 4 3 3 4 4 4 4 4 4 4 3 3 4 4 3 4 3 4 

SCALARS geom_link_id int 1
LOOKUP_TABLE default
28 1 10 18 20 20 1 29 18 1 10 34 10 13 1 13 21 10 10 29 1 10 28 1 18 28 11 18 1 1 10 18 25 1 30 11 18 10 1 11 1 1 10 10 12 25 29 30 21 1 1 1 12 1 1 1 12 1 12 1 17 1 1 12 10 25 10 1 1 18 29 18 1 10 23 17 18 29 1 10 12 10 17 11 11 19 19 12 11 18 18 1 1 18 1 1 11 11 1 11 26 26 13 13 1 1 1 31 31 1 1 21 13 12 12 1 10 1 17 1 32 1 1 17 1 27 1 13 1 1 1 17 12 10 10 18 18 17 1 12 1 1 12 1 36 4 12 33 12 13 1 10 13 13 1 18 10 1 1 18 1 18 30 11 1 17 13 1 1 12 1 17 20 11 1 12 11 1 1 12 1 12 11 1 1 1 10 12 19 1 11 11 1 12 1 18 1 1 18 1 1 1 18 18 1 1 1 18 1 26 18 13 18 12 11 1 1 11 1 1 1 1 31 18 13 18 1 1 11 1 1 1 11 13 1 12 1 22 12 1 12 1 6 24 35 10 10 1 1 17 17 32 32 1 1 17 10 1 1 33 33 13 13 1 1 12 12 13 1 1 12 13 13 1 1 13 1 1 1 1 12 1 17 17 1 17 1 1 13 13 1 12 17 17 27 27 1 13 1 17 13 13 1 1 1 1 1 1 1 1 1 1 10 10 10 10 1 1 1 10 21 21 12 10 12 12 1 12 33 33 13 10 10 17 17 32 32 1 1 17 10 1 17 17 1 17 1 8 1 1 17 17 1 17 13 13 1 27 27 13 1 1 1 1 1 1 11 11 11 11 11 1 1 10 10 1 1 10 1 1 1 1 1 1 1 1 18 18 18 1 10 10 1 10 13 13 1 17 1 7 13 13 10 13 26 26 18 18 1 13 19 19 11 10 1 1 18 13 13 1 1 13 1 1 31 31 11 11 1 1 13 13 1 13 1 13 11 1 18 1 1 1 3 1 1 17 17 17 17 1 1 17 1 20 20 11 11 1 1 12 12 11 1 1 12 1 12 11 11 1 1 11 1 1 1 30 30 11 11 1 1 17 17 11 1 1 17 1 17 28 28 12 12 18 1 12 12 25 25 18 18 1 14 17 17 18 1 1 17 15 17 1 1 1 2 1 9 1 16 5 18 18 1 18 18 1 1 1 1 1 1 1 11 11 1 1 11 1 11 1 

