# vtk DataFile Version 3.0
Generated by GMDS VTK Writer

ASCII
DATASET UNSTRUCTURED_GRID
POINTS 32 float
0 0 0
0 10 0
10 10 0
10 0 0
0 0 10
0 10 10
10 10 10
10 0 10
0 1 0
0 1 10
10 1 10
10 1 0
0 0 1
10 0 1
10 1 1
0 1 1
10 10 1
0 10 1
0 6 0
10 6 0
10 6 1
0 6 1
10 6 10
0 6 10
0 0 8
10 0 8
10 1 8
0 1 8
10 6 8
0 6 8
10 10 8
0 10 8

CELLS 64 192
2 1 2
2 3 13
2 3 0
2 5 6
2 0 12
2 7 4
2 14 20
2 18 1
2 8 18
2 11 19
2 0 8
2 24 12
2 4 9
2 25 13
2 7 10
2 26 14
2 3 11
2 4 24
2 20 16
2 9 10
2 19 2
2 8 11
2 11 14
2 8 15
2 12 13
2 13 14
2 15 14
2 12 15
2 2 16
2 1 17
2 10 26
2 17 16
2 7 25
2 15 21
2 21 17
2 18 19
2 19 20
2 20 21
2 18 21
2 10 22
2 22 6
2 9 23
2 23 5
2 23 22
2 9 27
2 27 15
2 24 25
2 25 26
2 27 26
2 24 27
2 22 28
2 28 20
2 23 29
2 29 21
2 26 28
2 28 29
2 27 29
2 6 30
2 30 16
2 5 31
2 31 17
2 30 28
2 31 30
2 31 29

CELL_TYPES 64
3 
3 
3 
3 
3 
3 
3 
3 
3 
3 
3 
3 
3 
3 
3 
3 
3 
3 
3 
3 
3 
3 
3 
3 
3 
3 
3 
3 
3 
3 
3 
3 
3 
3 
3 
3 
3 
3 
3 
3 
3 
3 
3 
3 
3 
3 
3 
3 
3 
3 
3 
3 
3 
3 
3 
3 
3 
3 
3 
3 
3 
3 
3 
3 
POINT_DATA 32
SCALARS GMDS_ID int 1
LOOKUP_TABLE default
0 1 2 3 4 5 6 7 8 9 10 11 12 13 14 15 16 17 18 19 20 21 22 23 24 25 26 27 28 29 30 31 
SCALARS geom_link_dim int 1
LOOKUP_TABLE default
1 1 1 1 1 1 1 1 2 2 2 2 2 2 3 3 2 2 2 2 3 3 2 2 2 2 3 3 3 3 2 2 
SCALARS geom_link_id int 1
LOOKUP_TABLE default
10 12 16 13 9 11 15 14 19 29 26 31 21 33 13 10 27 32 19 31 13 10 26 29 21 33 13 10 13 10 27 32 


CELL_DATA 64
SCALARS GMDS_ID int 1
LOOKUP_TABLE default
1 2 3 5 6 7 8 9 10 11 12 13 14 15 16 17 18 19 20 21 22 23 24 26 28 29 30 31 32 34 36 37 38 39 40 41 42 43 44 45 46 47 48 50 52 53 54 55 56 57 58 59 60 61 62 63 64 65 66 67 68 69 70 71 

SCALARS geom_link_dim int 1
LOOKUP_TABLE default
2 2 2 2 2 2 0 2 2 2 2 2 2 2 2 0 2 2 0 0 2 0 0 0 0 0 0 0 2 2 0 0 2 0 0 0 0 0 0 2 2 2 2 0 0 0 0 0 0 0 0 0 0 0 0 0 0 2 2 2 2 0 0 0 

SCALARS geom_link_id int 1
LOOKUP_TABLE default
30 33 20 25 21 28 0 19 19 31 19 21 29 33 26 -1 31 21 0 0 31 0 0 0 0 0 0 0 27 32 -1 0 33 0 0 0 0 0 0 26 26 29 29 0 -1 -1 -1 -1 -1 -1 -1 -1 -1 -1 -1 -1 -1 27 27 32 32 -1 -1 -1 

