# vtk DataFile Version 3.0
Generated by GMDS VTK Writer

ASCII
DATASET UNSTRUCTURED_GRID
POINTS 75 float
0 0 0
0 10 0
10 10 0
10 0 0
0 0 10
0 10 10
10 10 10
10 0 10
0 1 0
0 1 10
10 1 10
10 1 0
0 0 1
10 0 1
10 1 1
0 1 1
10 10 1
0 10 1
0 6 0
10 6 0
10 6 1
0 6 1
10 6 10
0 6 10
0 0 8
10 0 8
10 1 8
0 1 8
10 6 8
0 6 8
10 10 8
0 10 8
0 4 8
10 4 8
10 4 1
0 4 1
0 4 0
10 4 0
0 4 10
10 4 10
10 4 4
0 4 4
0 6 4
10 6 4
10 1 4
0 1 4
0 0 4
10 0 4
10 10 4
0 10 4
1 0 10
1 1 10
1 1 8
1 0 8
1 0 0
1 1 0
1 1 1
1 0 1
1 6 0
1 6 1
1 10 1
1 10 0
1 6 4
1 4 4
1 4 1
1 6 8
1 4 8
1 10 10
1 6 10
1 10 8
1 4 0
1 4 10
1 1 4
1 0 4
1 10 4

CELLS 170 510
2 27 32
2 3 13
2 32 29
2 0 12
2 42 21
2 18 1
2 28 43
2 29 42
2 0 8
2 50 51
2 4 9
2 24 53
2 7 10
2 53 25
2 3 11
2 4 24
2 20 16
2 19 2
2 11 14
2 15 35
2 8 15
2 14 34
2 13 14
2 12 15
2 2 16
2 33 28
2 1 17
2 26 33
2 10 26
2 7 25
2 43 20
2 21 17
2 19 20
2 18 21
2 40 34
2 22 6
2 33 40
2 23 5
2 35 21
2 34 20
2 9 27
2 51 52
2 25 26
2 24 27
2 22 28
2 51 10
2 23 29
2 9 51
2 32 41
2 41 35
2 6 30
2 4 50
2 5 31
2 50 7
2 30 28
2 31 29
2 27 52
2 52 26
2 8 36
2 36 18
2 11 37
2 37 19
2 37 34
2 36 35
2 9 38
2 38 23
2 10 39
2 39 22
2 39 33
2 38 32
2 42 41
2 43 40
2 26 44
2 44 14
2 27 45
2 45 15
2 45 41
2 44 40
2 24 46
2 46 12
2 25 47
2 47 13
2 47 44
2 46 45
2 30 48
2 48 16
2 31 49
2 49 17
2 43 48
2 42 49
2 53 52
2 50 53
2 0 54
2 54 3
2 8 55
2 55 11
2 15 56
2 56 14
2 12 57
2 57 13
2 54 55
2 55 56
2 57 56
2 54 57
2 18 58
2 58 19
2 21 59
2 59 20
2 17 60
2 60 16
2 1 61
2 61 2
2 58 59
2 60 59
2 61 60
2 61 58
2 42 62
2 62 43
2 41 63
2 63 40
2 35 64
2 64 34
2 63 62
2 64 63
2 59 64
2 59 62
2 29 65
2 65 28
2 32 66
2 66 33
2 65 66
2 66 63
2 65 62
2 5 67
2 67 6
2 23 68
2 68 22
2 31 69
2 69 30
2 67 68
2 68 65
2 65 69
2 67 69
2 36 70
2 70 37
2 56 64
2 64 70
2 55 70
2 58 70
2 38 71
2 71 39
2 52 66
2 66 71
2 51 71
2 68 71
2 45 72
2 72 44
2 63 72
2 52 72
2 56 72
2 46 73
2 73 47
2 72 73
2 53 73
2 57 73
2 49 74
2 74 48
2 69 74
2 62 74
2 60 74

CELL_TYPES 170
3 
3 
3 
3 
3 
3 
3 
3 
3 
3 
3 
3 
3 
3 
3 
3 
3 
3 
3 
3 
3 
3 
3 
3 
3 
3 
3 
3 
3 
3 
3 
3 
3 
3 
3 
3 
3 
3 
3 
3 
3 
3 
3 
3 
3 
3 
3 
3 
3 
3 
3 
3 
3 
3 
3 
3 
3 
3 
3 
3 
3 
3 
3 
3 
3 
3 
3 
3 
3 
3 
3 
3 
3 
3 
3 
3 
3 
3 
3 
3 
3 
3 
3 
3 
3 
3 
3 
3 
3 
3 
3 
3 
3 
3 
3 
3 
3 
3 
3 
3 
3 
3 
3 
3 
3 
3 
3 
3 
3 
3 
3 
3 
3 
3 
3 
3 
3 
3 
3 
3 
3 
3 
3 
3 
3 
3 
3 
3 
3 
3 
3 
3 
3 
3 
3 
3 
3 
3 
3 
3 
3 
3 
3 
3 
3 
3 
3 
3 
3 
3 
3 
3 
3 
3 
3 
3 
3 
3 
3 
3 
3 
3 
3 
3 
3 
3 
3 
3 
3 
3 
POINT_DATA 75
SCALARS GMDS_ID int 1
LOOKUP_TABLE default
0 1 2 3 4 5 6 7 8 9 10 11 12 13 14 15 16 17 18 19 20 21 22 23 24 25 26 27 28 29 30 31 32 33 34 35 36 37 38 39 40 41 42 43 44 45 46 47 48 49 50 51 52 53 54 55 56 57 58 59 60 61 62 63 64 65 66 67 68 69 70 71 72 73 74 
SCALARS geom_link_dim int 1
LOOKUP_TABLE default
1 1 1 1 1 1 1 1 2 2 2 2 2 2 3 3 2 2 2 2 3 3 2 2 2 2 3 3 3 3 2 2 3 3 3 3 2 2 2 2 3 3 3 3 3 3 2 2 2 2 2 3 0 3 2 3 0 3 3 0 3 2 0 0 0 0 0 2 3 3 3 3 0 3 3 
SCALARS geom_link_id int 1
LOOKUP_TABLE default
10 12 16 13 9 11 15 14 19 29 26 31 21 33 13 10 27 32 19 31 13 10 26 29 21 33 13 10 13 10 27 32 10 13 13 10 19 31 29 26 13 10 10 13 13 10 21 33 27 32 28 18 -1 12 20 11 -1 12 11 -1 17 30 -1 -1 -1 -1 -1 25 18 17 11 18 -1 12 17 


CELL_DATA 170
SCALARS GMDS_ID int 1
LOOKUP_TABLE default
0 2 4 6 8 9 10 11 12 13 14 15 16 17 18 19 20 22 24 25 26 27 29 31 32 33 34 35 36 38 39 40 42 44 45 46 47 48 49 51 52 53 55 57 58 59 60 61 62 64 65 66 67 68 69 71 73 75 76 77 78 79 81 82 83 84 85 86 88 89 91 93 94 95 96 97 99 100 101 102 103 104 106 107 108 109 110 111 112 114 115 116 117 118 119 120 121 122 123 124 125 126 127 128 129 130 131 132 133 134 135 136 137 138 139 140 141 142 143 144 145 146 147 148 149 150 151 152 153 154 155 156 157 158 159 160 161 162 163 164 165 166 167 168 169 170 171 172 173 174 175 176 177 178 179 180 181 182 183 184 185 186 187 188 189 190 191 192 193 194 

SCALARS geom_link_dim int 1
LOOKUP_TABLE default
0 2 0 2 0 2 0 0 2 0 2 0 2 0 2 2 0 2 0 0 0 0 0 0 2 0 2 0 0 2 0 0 0 0 0 2 0 2 0 0 0 0 0 0 0 0 0 0 0 0 2 2 2 2 0 0 0 0 2 2 2 2 0 0 2 2 2 2 0 0 0 0 0 0 0 0 0 0 2 2 2 2 0 0 2 2 2 2 0 0 0 0 2 2 0 0 0 0 0 0 0 0 0 0 0 0 0 0 0 0 2 2 0 0 0 0 0 0 0 0 0 0 0 0 0 0 0 0 0 0 0 0 0 2 2 0 0 0 0 0 0 0 0 0 0 0 0 0 0 0 0 0 0 0 0 0 0 0 0 0 0 0 0 0 0 0 0 0 0 0 

SCALARS geom_link_id int 1
LOOKUP_TABLE default
0 33 0 21 0 19 0 0 19 -1 29 -1 26 -1 31 21 0 31 0 0 0 0 0 0 27 0 32 0 0 33 0 0 0 0 0 26 0 29 0 0 0 -1 0 0 0 -1 0 -1 0 0 27 28 32 28 0 0 -1 -1 19 19 31 31 0 0 29 29 26 26 0 0 0 0 0 0 0 0 0 0 21 21 33 33 0 0 27 27 32 32 0 0 -1 -1 20 20 -1 -1 -1 -1 -1 -1 -1 -1 -1 -1 -1 -1 -1 -1 -1 -1 30 30 -1 -1 -1 -1 -1 -1 -1 -1 -1 -1 -1 -1 -1 -1 -1 -1 -1 -1 -1 -1 -1 25 25 -1 -1 -1 -1 -1 -1 -1 -1 -1 -1 -1 -1 -1 -1 -1 -1 -1 -1 -1 -1 -1 -1 -1 -1 -1 -1 -1 -1 -1 -1 -1 -1 -1 -1 -1 

