# vtk DataFile Version 3.0
Generated by GMDS VTK Writer

ASCII
DATASET UNSTRUCTURED_GRID
POINTS 47 float
5 0 0
5 0 -5
10 10 -5
-5 -5 10
10 -5 10
-5 5 10
10 5 10
10 5 -5
-5 -5 -8.88178419700125e-16
10 5 0
-5 5 0
10 10 -8.88178419700125e-16
0 5 -5
0 5 0
0 -5 0
0 5 10
-8.88178419700125e-16 -5 10
0 10 0
-5 0 0
0 0 0
0 0 -5
10 0 0
-5 -4.44089209850063e-16 10
0 0 10
10 -4.44089209850063e-16 10
-5 5 5
0 5 5
0 10 5
10 5 5
-5 -5 5
0 -5 5
0 0 5
-5 0 5
10 -5 5
10 0 5
5 5 0
5 5 -5
5 -5 0
5 5 5
5 10 5
5 10 0
5 5 10
5 10 -5
5 -5 10
5 0 10
5 0 5
5 -5 5

CELLS 96 288
2 12 36
2 13 35
2 20 12
2 8 18
2 35 9
2 14 19
2 10 13
2 0 21
2 27 17
2 19 0
2 15 26
2 5 25
2 7 2
2 18 10
2 19 13
2 7 9
2 35 0
2 2 11
2 0 1
2 20 1
2 36 35
2 11 9
2 8 14
2 26 13
2 12 13
2 5 15
2 3 16
2 25 10
2 14 37
2 13 17
2 36 1
2 18 19
2 20 19
2 21 9
2 3 22
2 22 5
2 16 23
2 23 15
2 37 0
2 22 23
2 4 24
2 24 6
2 36 7
2 25 26
2 26 27
2 6 28
2 28 9
2 3 29
2 29 8
2 16 30
2 30 14
2 23 31
2 31 19
2 22 32
2 32 18
2 29 30
2 30 31
2 32 31
2 29 32
2 26 31
2 25 32
2 4 33
2 24 34
2 34 21
2 33 34
2 28 34
2 26 38
2 38 28
2 27 39
2 17 40
2 40 11
2 38 39
2 40 39
2 35 40
2 35 38
2 15 41
2 41 6
2 41 38
2 42 2
2 36 42
2 42 40
2 43 4
2 23 44
2 44 24
2 31 45
2 45 34
2 30 46
2 46 33
2 43 44
2 44 45
2 46 45
2 43 46
2 0 45
2 37 46
2 41 44
2 38 45

CELL_TYPES 96
3 
3 
3 
3 
3 
3 
3 
3 
3 
3 
3 
3 
3 
3 
3 
3 
3 
3 
3 
3 
3 
3 
3 
3 
3 
3 
3 
3 
3 
3 
3 
3 
3 
3 
3 
3 
3 
3 
3 
3 
3 
3 
3 
3 
3 
3 
3 
3 
3 
3 
3 
3 
3 
3 
3 
3 
3 
3 
3 
3 
3 
3 
3 
3 
3 
3 
3 
3 
3 
3 
3 
3 
3 
3 
3 
3 
3 
3 
3 
3 
3 
3 
3 
3 
3 
3 
3 
3 
3 
3 
3 
3 
3 
3 
3 
3 
POINT_DATA 47
SCALARS GMDS_ID int 1
LOOKUP_TABLE default
0 1 2 4 7 9 10 11 12 14 15 16 19 20 21 22 23 25 28 29 30 31 33 34 35 37 38 39 40 42 43 44 45 46 47 48 49 51 52 53 54 55 57 58 59 60 61 
SCALARS geom_link_dim int 1
LOOKUP_TABLE default
1 1 0 0 0 0 0 0 0 1 1 0 1 1 1 1 0 1 1 1 1 1 0 1 0 1 1 1 1 0 1 1 1 0 1 1 1 1 1 1 1 1 0 0 1 1 1 
SCALARS geom_link_id int 1
LOOKUP_TABLE default
26 25 -1 -1 -1 -1 -1 -1 -1 21 5 -1 18 1 28 16 -1 4 11 12 19 29 -1 20 -1 6 2 3 22 -1 27 14 13 -1 30 10 17 31 8 7 9 15 -1 -1 24 23 32 


CELL_DATA 96
SCALARS GMDS_ID int 1
LOOKUP_TABLE default
0 1 3 5 6 7 8 10 12 13 14 16 19 21 23 24 25 32 33 34 35 36 39 41 42 45 47 50 51 57 62 63 64 67 73 74 75 76 77 79 80 81 82 84 85 87 88 94 95 96 97 98 99 100 101 102 103 104 105 106 107 108 110 111 114 115 117 118 119 121 122 123 124 125 126 127 128 133 135 136 137 139 140 141 142 143 144 145 146 147 148 149 150 151 152 153 

SCALARS geom_link_dim int 1
LOOKUP_TABLE default
2 2 2 0 2 2 2 2 2 2 2 0 0 2 2 0 2 0 2 2 2 0 0 2 2 0 0 2 2 2 2 2 2 2 0 0 0 2 2 0 0 0 0 2 2 0 2 0 0 0 2 2 0 0 2 0 2 0 0 0 2 0 0 2 0 2 2 2 2 2 0 2 2 2 2 2 0 2 0 0 0 0 2 0 2 2 2 0 0 2 2 0 2 2 2 0 

SCALARS geom_link_id int 1
LOOKUP_TABLE default
41 12 50 0 39 52 15 14 43 4 44 0 0 60 2 0 6 0 13 47 24 0 0 9 18 0 0 48 55 51 53 27 26 56 0 0 0 31 16 0 0 0 0 23 42 0 22 0 0 0 40 25 0 0 54 0 45 0 0 0 58 0 0 57 0 46 5 38 30 21 0 29 32 33 3 37 0 35 0 0 0 0 49 0 1 20 17 0 0 28 34 0 7 59 36 0 

