# vtk DataFile Version 3.0
Generated by GMDS VTK Writer

ASCII
DATASET UNSTRUCTURED_GRID
POINTS 64 float
0 0 0
0 10 0
10 10 0
10 0 0
0 0 10
0 10 10
10 10 10
10 0 10
0 4 0
0 4 10
10 4 10
10 4 0
1 0 0
1 0 10
1 4 10
1 4 0
1 10 10
1 10 0
4 0 0
4 0 10
4 4 10
4 4 0
4 10 10
4 10 0
1 0 6
1 4 6
0 4 6
0 0 6
4 0 6
4 4 6
10 0 6
10 4 6
1 10 6
0 10 6
10 10 6
4 10 6
0 1 10
1 1 10
1 1 6
0 1 6
1 1 0
0 1 0
4 1 10
4 1 6
4 1 0
10 1 10
10 1 6
10 1 0
0 1 4
1 1 4
1 4 4
0 4 4
0 0 4
1 0 4
1 10 4
0 10 4
10 10 4
10 4 4
4 4 4
4 10 4
4 0 4
4 1 4
10 0 4
10 1 4

CELLS 144 432
2 13 4
2 3 18
2 9 26
2 20 14
2 12 0
2 18 12
2 10 20
2 4 36
2 13 37
2 24 38
2 27 39
2 50 49
2 8 1
2 41 48
2 9 5
2 40 49
2 10 6
2 48 39
2 11 2
2 36 9
2 7 19
2 39 26
2 19 13
2 14 25
2 14 9
2 15 8
2 36 37
2 15 50
2 37 38
2 51 48
2 16 5
2 13 24
2 17 1
2 16 14
2 37 14
2 17 15
2 11 21
2 21 15
2 38 39
2 50 25
2 36 39
2 51 26
2 6 22
2 22 16
2 2 23
2 23 17
2 22 20
2 38 25
2 23 21
2 4 27
2 51 50
2 26 25
2 49 48
2 27 24
2 19 28
2 20 29
2 8 51
2 25 29
2 24 28
2 7 30
2 10 31
2 49 38
2 31 29
2 30 28
2 16 32
2 5 33
2 25 32
2 33 26
2 33 32
2 6 34
2 22 35
2 34 31
2 29 35
2 34 35
2 32 35
2 12 40
2 40 15
2 0 41
2 41 8
2 41 40
2 19 42
2 42 20
2 28 43
2 43 29
2 37 42
2 42 43
2 38 43
2 18 44
2 44 21
2 40 44
2 7 45
2 45 10
2 30 46
2 46 31
2 45 42
2 43 46
2 45 46
2 3 47
2 47 11
2 47 44
2 0 52
2 52 27
2 12 53
2 53 24
2 52 53
2 53 49
2 52 48
2 17 54
2 54 32
2 1 55
2 55 33
2 50 54
2 55 51
2 55 54
2 2 56
2 56 34
2 11 57
2 57 31
2 21 58
2 58 29
2 23 59
2 59 35
2 56 57
2 57 58
2 58 59
2 56 59
2 50 58
2 54 59
2 18 60
2 60 28
2 44 61
2 61 43
2 53 60
2 60 61
2 49 61
2 58 61
2 3 62
2 62 30
2 47 63
2 63 46
2 62 60
2 61 63
2 62 63
2 57 63

CELL_TYPES 144
3 
3 
3 
3 
3 
3 
3 
3 
3 
3 
3 
3 
3 
3 
3 
3 
3 
3 
3 
3 
3 
3 
3 
3 
3 
3 
3 
3 
3 
3 
3 
3 
3 
3 
3 
3 
3 
3 
3 
3 
3 
3 
3 
3 
3 
3 
3 
3 
3 
3 
3 
3 
3 
3 
3 
3 
3 
3 
3 
3 
3 
3 
3 
3 
3 
3 
3 
3 
3 
3 
3 
3 
3 
3 
3 
3 
3 
3 
3 
3 
3 
3 
3 
3 
3 
3 
3 
3 
3 
3 
3 
3 
3 
3 
3 
3 
3 
3 
3 
3 
3 
3 
3 
3 
3 
3 
3 
3 
3 
3 
3 
3 
3 
3 
3 
3 
3 
3 
3 
3 
3 
3 
3 
3 
3 
3 
3 
3 
3 
3 
3 
3 
3 
3 
3 
3 
3 
3 
3 
3 
3 
3 
3 
3 
POINT_DATA 64
SCALARS GMDS_ID int 1
LOOKUP_TABLE default
0 1 2 3 4 5 6 7 8 9 10 11 12 13 14 15 16 17 18 19 20 21 22 23 24 25 26 27 28 29 30 31 32 33 34 35 36 37 38 39 40 41 42 43 44 45 46 47 48 49 50 51 52 53 54 55 56 57 58 59 60 61 62 63 
SCALARS geom_link_dim int 1
LOOKUP_TABLE default
1 1 1 1 1 1 1 1 2 2 2 2 2 2 3 3 2 2 2 2 3 3 2 2 3 0 3 2 3 0 2 3 3 2 2 3 2 3 0 3 3 2 3 0 3 2 3 2 3 0 0 3 2 3 3 2 2 3 0 3 3 0 2 3 
SCALARS geom_link_id int 1
LOOKUP_TABLE default
10 12 16 13 9 11 15 14 19 29 26 31 20 28 18 11 25 30 20 28 18 11 25 30 12 0 10 21 12 0 33 13 17 32 27 17 29 18 0 10 11 19 18 0 11 26 13 31 10 -1 -1 10 21 12 17 32 27 13 -1 17 12 -1 33 13 


CELL_DATA 144
SCALARS GMDS_ID int 1
LOOKUP_TABLE default
0 1 2 3 4 5 7 8 9 10 11 12 13 14 15 16 17 18 19 20 21 22 23 24 25 27 28 29 30 31 33 34 35 36 37 38 39 40 41 42 43 44 45 46 47 48 49 50 51 52 54 55 56 57 58 60 62 63 64 65 67 69 70 71 72 74 76 77 78 79 81 83 84 85 86 87 88 89 90 92 94 95 96 97 98 99 100 101 102 104 105 106 107 108 109 110 111 112 113 114 116 117 118 119 120 121 122 123 124 125 126 127 128 129 130 131 132 133 134 135 136 137 138 139 140 141 142 143 144 145 146 147 148 149 150 151 152 153 154 155 156 157 158 159 

SCALARS geom_link_dim int 1
LOOKUP_TABLE default
2 2 0 0 2 2 0 2 0 0 0 0 2 0 2 0 2 0 2 2 2 0 2 0 0 0 0 0 0 0 2 0 2 0 0 0 0 0 0 0 0 0 2 2 2 2 0 0 0 2 0 0 0 0 0 0 0 0 0 2 0 0 0 0 0 2 0 0 0 2 0 0 0 0 0 0 0 2 2 0 0 0 0 0 0 0 0 0 0 0 2 2 0 0 0 0 0 2 2 0 2 2 0 0 0 0 0 0 0 2 2 0 0 0 2 2 0 0 0 0 0 0 0 0 0 0 0 0 0 0 0 0 0 0 0 0 2 2 0 0 0 0 0 0 

SCALARS geom_link_id int 1
LOOKUP_TABLE default
28 20 0 0 20 20 0 29 0 0 0 -1 19 -1 29 -1 26 -1 31 29 28 0 28 0 0 0 0 -1 0 -1 25 0 30 0 0 0 0 0 0 -1 0 -1 25 25 30 30 0 0 0 21 -1 0 -1 0 0 0 -1 0 0 33 0 -1 0 0 0 32 0 0 0 27 0 0 0 0 0 0 0 19 19 0 0 0 0 0 0 0 0 0 0 0 26 26 0 0 0 0 0 31 31 0 21 21 -1 -1 -1 -1 -1 -1 -1 32 32 -1 -1 -1 27 27 -1 -1 -1 -1 -1 -1 -1 -1 -1 -1 -1 -1 -1 -1 -1 -1 -1 -1 -1 -1 33 33 -1 -1 -1 -1 -1 -1 

