# vtk DataFile Version 3.0
Generated by GMDS VTK Writer

ASCII
DATASET UNSTRUCTURED_GRID
POINTS 59 float
5 0 0
5 0 -5
10 10 -5
10 -5 -5
-5 -5 10
-5 10 10
10 10 10
10 -5 10
-5 5 10
10 5 10
10 5 -5
-5 -5 -8.88178419700125e-16
10 -5 -8.88178419700125e-16
10 5 0
-5 5 0
10 10 -8.88178419700125e-16
-8.88178419700125e-16 -5 -5
0 5 -5
0 5 0
0 -5 0
0 5 10
-8.88178419700125e-16 -5 10
-8.88178419700125e-16 10 -5
0 10 0
-8.88178419700125e-16 10 10
-5 0 0
0 0 0
0 0 -5
10 0 0
10 -4.44089209850063e-16 -5
-5 -4.44089209850063e-16 10
0 0 10
10 -4.44089209850063e-16 10
-5 10 5
-5 5 5
0 5 5
0 10 5
10 5 5
10 10 5
-5 -5 5
0 -5 5
-2.22044604925031e-16 0 5
-5 0 5
10 -5 5
10 0 5
5 5 0
5 5 -5
5 -5 -5
5 -5 0
5 5 5
5 10 5
5 10 0
5 5 10
5 10 10
5 10 -5
5 -5 10
5 0 10
5 0 5
5 -5 5

CELLS 130 390
2 17 46
2 18 45
2 3 12
2 27 17
2 47 48
2 11 25
2 45 13
2 19 26
2 14 18
2 0 28
2 36 23
2 26 0
2 20 35
2 8 5
2 8 34
2 9 6
2 5 33
2 10 2
2 25 14
2 26 18
2 10 13
2 45 0
2 47 3
2 16 27
2 33 34
2 2 15
2 0 1
2 27 1
2 46 45
2 15 13
2 11 19
2 35 18
2 17 18
2 24 36
2 16 19
2 8 20
2 4 21
2 16 47
2 34 14
2 19 48
2 1 29
2 22 17
2 18 23
2 22 23
2 5 24
2 24 20
2 46 1
2 25 26
2 27 26
2 12 28
2 28 13
2 3 29
2 29 10
2 29 28
2 4 30
2 30 8
2 21 31
2 31 20
2 48 0
2 48 12
2 30 31
2 7 32
2 32 9
2 46 10
2 34 35
2 35 36
2 33 36
2 9 37
2 37 13
2 6 38
2 38 15
2 38 37
2 4 39
2 39 11
2 21 40
2 40 19
2 31 41
2 41 26
2 30 42
2 42 25
2 39 40
2 40 41
2 42 41
2 39 42
2 35 41
2 34 42
2 7 43
2 43 12
2 32 44
2 44 28
2 43 44
2 37 44
2 47 1
2 35 49
2 49 37
2 36 50
2 50 38
2 23 51
2 51 15
2 49 50
2 51 50
2 45 51
2 45 49
2 20 52
2 52 9
2 24 53
2 53 6
2 52 53
2 53 50
2 52 49
2 22 54
2 54 2
2 46 54
2 54 51
2 21 55
2 55 7
2 31 56
2 56 32
2 41 57
2 57 44
2 40 58
2 58 43
2 55 56
2 56 57
2 58 57
2 55 58
2 0 57
2 48 58
2 52 56
2 49 57

CELL_TYPES 130
3 
3 
3 
3 
3 
3 
3 
3 
3 
3 
3 
3 
3 
3 
3 
3 
3 
3 
3 
3 
3 
3 
3 
3 
3 
3 
3 
3 
3 
3 
3 
3 
3 
3 
3 
3 
3 
3 
3 
3 
3 
3 
3 
3 
3 
3 
3 
3 
3 
3 
3 
3 
3 
3 
3 
3 
3 
3 
3 
3 
3 
3 
3 
3 
3 
3 
3 
3 
3 
3 
3 
3 
3 
3 
3 
3 
3 
3 
3 
3 
3 
3 
3 
3 
3 
3 
3 
3 
3 
3 
3 
3 
3 
3 
3 
3 
3 
3 
3 
3 
3 
3 
3 
3 
3 
3 
3 
3 
3 
3 
3 
3 
3 
3 
3 
3 
3 
3 
3 
3 
3 
3 
3 
3 
3 
3 
3 
3 
3 
3 
POINT_DATA 59
SCALARS GMDS_ID int 1
LOOKUP_TABLE default
0 1 2 3 4 5 6 7 9 10 11 12 13 14 15 16 18 19 20 21 22 23 24 25 26 28 29 30 31 32 33 34 35 36 37 38 39 40 41 42 43 44 45 46 47 48 49 50 51 52 53 54 55 56 57 58 59 60 61 
SCALARS geom_link_dim int 1
LOOKUP_TABLE default
0 1 0 0 0 0 0 0 0 0 0 0 0 1 1 0 0 1 1 1 1 0 0 1 0 1 1 1 1 0 0 1 0 0 1 1 1 1 0 0 1 0 1 0 1 0 1 0 1 0 1 1 1 0 0 0 1 0 1 
SCALARS geom_link_id int 1
LOOKUP_TABLE default
0 25 -1 -1 -1 -1 -1 -1 -1 -1 -1 -1 -1 21 5 -1 -1 18 1 28 16 -1 -1 4 -1 11 12 19 29 -1 -1 20 -1 -1 6 2 3 22 -1 -1 27 0 13 -1 30 0 17 -1 31 0 7 9 15 -1 -1 -1 24 0 32 


CELL_DATA 130
SCALARS GMDS_ID int 1
LOOKUP_TABLE default
0 1 2 3 4 5 6 7 8 10 12 13 14 15 16 17 18 19 21 23 24 25 27 30 31 32 33 34 35 36 39 41 42 43 44 45 47 49 50 51 52 56 57 58 59 61 62 63 64 66 67 68 69 71 73 74 75 76 77 78 79 80 81 82 84 85 86 87 88 89 90 92 94 95 96 97 98 99 100 101 102 103 104 105 106 107 108 109 110 111 114 115 116 117 118 119 120 121 122 123 124 125 126 127 128 129 130 131 132 133 134 135 136 137 138 139 140 141 142 143 144 145 146 147 148 149 150 151 152 153 

SCALARS geom_link_dim int 1
LOOKUP_TABLE default
2 0 0 2 0 0 0 2 2 0 2 0 0 0 0 0 0 0 2 2 0 0 0 0 0 0 0 2 0 0 0 2 2 0 0 0 0 0 2 2 0 0 2 0 0 0 2 2 2 0 2 0 0 0 0 0 0 2 0 0 0 0 0 0 2 2 0 0 2 0 0 0 0 0 0 2 0 0 0 2 0 0 0 0 0 2 0 0 0 2 0 2 0 0 0 2 0 2 0 0 2 0 0 2 0 0 0 0 0 0 0 0 0 0 0 0 2 0 0 0 2 0 0 0 0 0 0 2 2 0 

SCALARS geom_link_id int 1
LOOKUP_TABLE default
41 0 0 50 0 0 0 52 15 0 43 0 0 0 0 0 0 0 60 2 0 0 0 0 0 0 0 47 0 0 0 9 18 0 0 0 0 0 48 55 0 0 51 0 0 0 53 27 26 0 56 0 0 0 0 0 0 31 0 0 0 0 0 0 23 42 0 0 22 0 0 0 0 0 0 40 0 0 0 54 0 0 0 0 0 58 0 0 0 57 0 46 0 0 0 30 0 21 0 0 32 0 0 37 0 0 0 0 0 0 0 0 0 0 0 0 49 0 0 0 17 0 0 0 0 0 0 59 36 0 

