# vtk DataFile Version 3.0
Generated by GMDS VTK Writer

ASCII
DATASET UNSTRUCTURED_GRID
POINTS 48 float
-5 -5 -5
-5 10 -5
10 10 -5
10 -5 -5
-5 -5 10
-5 10 10
10 10 10
10 -5 10
-5 5 -5
-5 5 10
10 5 10
10 5 -5
-5 -5 -8.88178419700125e-16
10 -5 -8.88178419700125e-16
10 5 0
-5 5 0
10 10 -8.88178419700125e-16
-5 10 -8.88178419700125e-16
-8.88178419700125e-16 -5 -5
0 5 -5
-8.88178419700125e-16 5 0
0 -5 0
0 5 10
-8.88178419700125e-16 -5 10
-8.88178419700125e-16 10 -5
0 10 0
-8.88178419700125e-16 10 10
-5 -4.44089209850063e-16 -5
-5 0 0
-4.44089209850063e-16 0 0
0 0 -5
10 0 0
10 -4.44089209850063e-16 -5
-5 -4.44089209850063e-16 10
0 0 10
10 -4.44089209850063e-16 10
-5 10 5
-5 5 5
-4.44089209850063e-16 5 5
0 10 5
10 5 5
10 10 5
-5 -5 5
0 -5 5
-2.22044604925031e-16 0 5
-5 0 5
10 -5 5
10 0 5

CELLS 104 312
2 0 27
2 3 13
2 30 19
2 12 28
2 0 12
2 21 29
2 15 20
2 18 3
2 0 18
2 8 19
2 39 25
2 8 1
2 22 38
2 9 5
2 9 37
2 10 6
2 5 36
2 11 2
2 20 14
2 28 15
2 19 11
2 29 20
2 11 14
2 8 15
2 27 28
2 36 17
2 18 30
2 36 37
2 2 16
2 1 17
2 16 14
2 27 8
2 17 15
2 12 21
2 21 13
2 38 20
2 19 20
2 26 39
2 18 21
2 9 22
2 22 10
2 4 23
2 23 7
2 37 15
2 1 24
2 24 2
2 17 25
2 25 16
2 24 19
2 20 25
2 24 25
2 5 26
2 26 6
2 26 22
2 28 29
2 30 29
2 27 30
2 13 31
2 31 14
2 3 32
2 32 11
2 31 29
2 32 31
2 32 30
2 4 33
2 33 9
2 23 34
2 34 22
2 33 34
2 7 35
2 35 10
2 35 34
2 37 38
2 38 39
2 36 39
2 10 40
2 40 14
2 6 41
2 41 16
2 40 38
2 41 40
2 41 39
2 4 42
2 42 12
2 23 43
2 43 21
2 34 44
2 44 29
2 33 45
2 45 28
2 42 43
2 43 44
2 45 44
2 42 45
2 38 44
2 37 45
2 7 46
2 46 13
2 35 47
2 47 31
2 46 43
2 44 47
2 46 47
2 40 47

CELL_TYPES 104
3 
3 
3 
3 
3 
3 
3 
3 
3 
3 
3 
3 
3 
3 
3 
3 
3 
3 
3 
3 
3 
3 
3 
3 
3 
3 
3 
3 
3 
3 
3 
3 
3 
3 
3 
3 
3 
3 
3 
3 
3 
3 
3 
3 
3 
3 
3 
3 
3 
3 
3 
3 
3 
3 
3 
3 
3 
3 
3 
3 
3 
3 
3 
3 
3 
3 
3 
3 
3 
3 
3 
3 
3 
3 
3 
3 
3 
3 
3 
3 
3 
3 
3 
3 
3 
3 
3 
3 
3 
3 
3 
3 
3 
3 
3 
3 
3 
3 
3 
3 
3 
3 
3 
3 
POINT_DATA 48
SCALARS GMDS_ID int 1
LOOKUP_TABLE default
0 1 2 3 4 5 6 7 8 9 10 11 12 13 14 15 16 17 18 19 20 21 22 23 24 25 26 27 28 29 30 31 32 33 34 35 36 37 38 39 40 41 42 43 44 45 46 47 
SCALARS geom_link_dim int 1
LOOKUP_TABLE default
0 0 0 0 0 0 0 0 0 0 0 0 0 0 1 1 0 0 0 1 0 1 1 0 0 1 0 0 1 0 1 1 0 0 1 0 0 1 0 1 1 0 0 1 0 1 0 1 
SCALARS geom_link_id int 1
LOOKUP_TABLE default
-1 -1 -1 -1 -1 -1 -1 -1 -1 -1 -1 -1 -1 -1 21 5 -1 -1 -1 18 0 28 16 -1 -1 4 -1 -1 11 0 19 29 -1 -1 20 -1 -1 6 -1 3 22 -1 -1 27 -1 13 -1 30 


CELL_DATA 104
SCALARS GMDS_ID int 1
LOOKUP_TABLE default
1 2 3 5 6 7 8 9 10 11 12 13 14 15 16 17 18 19 20 21 22 23 24 26 28 29 30 31 32 34 36 37 38 39 40 41 42 43 44 45 46 47 48 50 52 53 54 55 56 57 58 59 60 61 63 64 65 66 67 68 69 70 71 72 73 74 75 76 79 80 81 83 84 85 86 87 88 89 90 91 92 93 94 95 96 97 98 99 100 101 102 103 104 105 106 107 108 109 110 111 112 113 114 115 

SCALARS geom_link_dim int 1
LOOKUP_TABLE default
0 0 2 0 0 0 0 0 0 0 2 0 0 0 0 0 0 0 0 2 0 0 0 0 0 0 0 0 0 0 0 0 0 0 0 0 0 0 0 0 0 0 0 2 0 0 0 0 0 0 0 0 0 0 0 0 0 0 2 0 0 0 0 0 0 0 0 2 0 0 0 0 0 0 0 0 2 0 0 0 0 0 0 0 0 2 0 0 0 2 0 0 0 0 0 2 0 0 0 2 0 0 0 2 

SCALARS geom_link_id int 1
LOOKUP_TABLE default
0 0 50 0 0 0 0 0 0 0 43 0 -1 0 -1 0 -1 0 0 60 0 0 0 0 0 -1 0 -1 0 0 0 0 0 0 0 -1 0 -1 0 0 0 0 0 48 0 0 0 0 0 0 0 0 0 0 0 0 0 0 56 0 0 0 0 0 0 0 0 31 0 0 0 0 -1 -1 -1 -1 22 -1 -1 -1 -1 -1 -1 -1 -1 40 -1 -1 -1 54 -1 -1 -1 -1 -1 58 -1 -1 -1 57 -1 -1 -1 46 

