# vtk DataFile Version 3.0
Generated by GMDS VTK Writer

ASCII
DATASET UNSTRUCTURED_GRID
POINTS 216 float
0 0 0
0 10 0
10 10 0
10 0 0
0 0 10
0 10 10
10 10 10
10 0 10
0 1 0
0 1 10
10 1 10
10 1 0
0 0 1
10 0 1
10 1 1
0 1 1
10 10 1
0 10 1
0 6 0
10 6 0
10 6 1
0 6 1
10 6 10
0 6 10
0 0 8
10 0 8
10 1 8
0 1 8
10 6 8
0 6 8
10 10 8
0 10 8
0 4 8
10 4 8
10 4 1
0 4 1
0 4 0
10 4 0
0 4 10
10 4 10
10 4 4
0 4 4
0 6 4
10 6 4
10 1 4
0 1 4
0 0 4
10 0 4
10 10 4
0 10 4
1 0 10
1 1 10
1 1 8
1 0 8
1 0 0
1 1 0
1 1 1
1 0 1
1 6 0
1 6 1
1 10 1
1 10 0
1 6 4
1 4 4
1 4 1
1 6 8
1 4 8
1 10 10
1 6 10
1 10 8
1 4 0
1 4 10
1 1 4
1 0 4
1 10 4
4 0 10
4 1 10
4 1 8
4 0 8
4 0 0
4 1 0
4 1 1
4 0 1
4 6 0
4 6 1
4 10 1
4 10 0
4 6 4
4 4 4
4 4 1
4 6 8
4 4 8
4 10 10
4 6 10
4 10 8
4 4 0
4 4 10
4 1 4
4 0 4
4 10 4
4 8 1
4 8 0
10 8 0
10 8 1
1 8 1
1 8 0
0 8 0
0 8 1
0 8 10
0 8 8
1 8 8
1 8 10
0 8 4
1 8 4
4 8 8
4 8 10
10 8 8
10 8 10
4 8 4
10 8 4
8 6 4
8 4 4
8 4 1
8 6 1
8 0 0
8 1 0
8 1 1
8 0 1
8 0 10
8 1 10
8 1 8
8 0 8
8 8 1
8 8 0
8 6 0
8 10 1
8 10 0
8 6 8
8 4 8
8 4 0
8 4 10
8 6 10
8 1 4
8 0 4
8 10 10
8 10 8
8 8 8
8 8 10
8 10 4
8 8 4
1 6 6
1 4 6
4 4 6
4 6 6
0 0 6
0 1 6
1 1 6
1 0 6
8 1 6
8 0 6
10 0 6
10 1 6
4 1 6
4 0 6
0 8 6
1 8 6
0 6 6
0 10 6
1 10 6
0 4 6
4 10 6
4 8 6
8 4 6
8 6 6
10 4 6
10 6 6
8 8 6
8 10 6
10 8 6
10 10 6
6 6 4
6 4 4
6 4 1
6 6 1
6 0 0
6 1 0
6 1 1
6 0 1
6 0 10
6 1 10
6 1 8
6 0 8
6 1 6
6 0 6
6 0 4
6 1 4
6 8 1
6 8 0
6 6 0
6 10 1
6 10 0
6 4 0
6 4 8
6 4 10
6 6 8
6 6 10
6 10 10
6 10 8
6 8 8
6 8 10
6 6 6
6 4 6
6 10 4
6 8 4
6 8 6
6 10 6

CELLS 540 1620
2 27 32
2 50 75
2 3 13
2 80 81
2 32 29
2 151 63
2 0 12
2 54 79
2 42 21
2 122 34
2 187 127
2 88 181
2 0 8
2 50 51
2 4 9
2 24 53
2 7 10
2 105 58
2 3 11
2 4 24
2 121 122
2 153 87
2 120 121
2 79 82
2 11 14
2 15 35
2 8 15
2 14 34
2 81 82
2 13 14
2 58 83
2 12 15
2 2 16
2 33 28
2 1 17
2 26 33
2 10 26
2 66 151
2 7 25
2 43 20
2 150 62
2 19 20
2 51 76
2 18 21
2 40 34
2 126 14
2 82 187
2 120 43
2 35 21
2 76 77
2 34 20
2 9 27
2 51 52
2 153 152
2 25 26
2 55 80
2 24 27
2 22 28
2 104 59
2 23 29
2 9 51
2 181 121
2 75 76
2 41 35
2 6 30
2 4 50
2 5 31
2 60 104
2 127 13
2 53 78
2 75 78
2 27 52
2 79 80
2 61 105
2 8 36
2 36 18
2 11 37
2 37 19
2 150 151
2 37 34
2 36 35
2 9 38
2 38 23
2 10 39
2 39 22
2 77 78
2 39 33
2 38 32
2 151 152
2 42 41
2 91 152
2 43 40
2 183 182
2 44 14
2 89 182
2 45 15
2 57 82
2 45 41
2 44 40
2 182 122
2 46 12
2 183 123
2 47 13
2 56 81
2 47 44
2 46 45
2 185 125
2 48 16
2 87 180
2 49 17
2 125 11
2 52 77
2 121 40
2 53 52
2 50 53
2 0 54
2 17 107
2 8 55
2 106 107
2 15 56
2 107 104
2 12 57
2 107 21
2 54 55
2 55 56
2 57 56
2 54 57
2 18 58
2 100 84
2 21 59
2 86 101
2 17 60
2 101 83
2 1 61
2 85 100
2 58 59
2 123 122
2 61 60
2 42 62
2 103 20
2 41 63
2 105 101
2 35 64
2 106 18
2 63 62
2 64 63
2 59 64
2 59 62
2 29 65
2 100 101
2 32 66
2 53 157
2 65 66
2 80 185
2 75 188
2 5 67
2 102 19
2 23 68
2 24 154
2 31 69
2 16 103
2 68 65
2 67 69
2 36 70
2 1 106
2 56 64
2 64 70
2 55 70
2 58 70
2 38 71
2 102 103
2 52 66
2 66 71
2 51 71
2 68 71
2 45 72
2 104 100
2 63 72
2 79 184
2 56 72
2 46 73
2 104 105
2 72 73
2 84 183
2 57 73
2 49 74
2 2 102
2 76 189
2 124 3
2 60 74
2 27 155
2 59 84
2 52 156
2 60 85
2 156 72
2 61 86
2 150 153
2 83 84
2 123 120
2 85 86
2 123 20
2 62 87
2 159 143
2 63 88
2 131 159
2 64 89
2 155 45
2 87 88
2 88 89
2 84 89
2 84 87
2 65 90
2 160 47
2 66 91
2 25 160
2 90 91
2 186 126
2 188 128
2 67 92
2 65 150
2 68 93
2 130 158
2 69 94
2 157 73
2 90 93
2 92 94
2 70 95
2 154 46
2 81 89
2 89 95
2 80 95
2 83 95
2 71 96
2 156 157
2 77 91
2 91 96
2 76 96
2 93 96
2 72 97
2 90 153
2 88 97
2 184 124
2 81 97
2 73 98
2 152 88
2 97 98
2 180 181
2 82 98
2 74 99
2 154 155
2 77 190
2 85 99
2 106 105
2 5 108
2 108 23
2 31 109
2 109 29
2 69 110
2 110 65
2 67 111
2 111 68
2 108 109
2 109 110
2 111 110
2 108 111
2 49 112
2 112 42
2 74 113
2 113 62
2 180 120
2 112 113
2 189 129
2 107 112
2 104 113
2 94 114
2 114 90
2 92 115
2 115 93
2 110 114
2 115 114
2 111 115
2 30 116
2 116 28
2 6 117
2 117 22
2 158 142
2 117 116
2 154 157
2 99 118
2 118 87
2 113 118
2 190 130
2 48 119
2 119 43
2 155 156
2 81 186
2 100 118
2 103 119
2 124 125
2 125 126
2 126 127
2 124 127
2 128 7
2 129 10
2 130 26
2 131 25
2 128 129
2 129 130
2 130 131
2 128 131
2 132 103
2 133 102
2 134 19
2 132 133
2 134 133
2 134 123
2 123 132
2 135 16
2 136 2
2 135 136
2 136 133
2 135 132
2 137 28
2 138 33
2 137 138
2 184 185
2 185 186
2 139 37
2 126 122
2 122 139
2 125 139
2 134 139
2 140 39
2 130 138
2 138 140
2 129 140
2 141 22
2 137 141
2 141 140
2 142 44
2 121 142
2 183 180
2 126 142
2 143 47
2 142 143
2 181 182
2 127 143
2 144 6
2 145 30
2 146 116
2 147 117
2 144 145
2 145 146
2 146 147
2 144 147
2 137 146
2 141 147
2 148 48
2 149 119
2 186 187
2 148 149
2 184 187
2 120 149
2 135 148
2 132 149
2 26 161
2 161 44
2 158 159
2 160 159
2 160 161
2 161 158
2 77 162
2 162 97
2 78 163
2 163 98
2 162 163
2 157 163
2 156 162
2 109 164
2 164 112
2 110 165
2 165 113
2 29 166
2 166 42
2 164 165
2 150 165
2 166 150
2 166 164
2 31 167
2 167 49
2 69 168
2 168 74
2 167 168
2 168 165
2 167 164
2 32 169
2 169 41
2 166 169
2 169 151
2 155 169
2 156 151
2 162 152
2 94 170
2 170 99
2 114 171
2 171 118
2 168 170
2 170 171
2 165 171
2 153 171
2 138 172
2 172 121
2 137 173
2 173 120
2 173 172
2 33 174
2 174 40
2 28 175
2 175 43
2 174 172
2 175 174
2 175 173
2 158 172
2 161 174
2 146 176
2 176 149
2 145 177
2 177 148
2 177 176
2 116 178
2 178 119
2 30 179
2 179 48
2 178 176
2 179 178
2 179 177
2 173 176
2 175 178
2 78 191
2 191 131
2 188 189
2 189 190
2 190 191
2 188 191
2 162 192
2 192 158
2 163 193
2 193 159
2 98 194
2 194 143
2 97 195
2 195 142
2 192 193
2 194 193
2 195 194
2 195 192
2 100 196
2 196 132
2 101 197
2 197 133
2 83 198
2 198 134
2 196 197
2 198 197
2 198 183
2 183 196
2 85 199
2 199 135
2 86 200
2 200 136
2 199 200
2 200 197
2 199 196
2 191 193
2 190 192
2 95 201
2 201 139
2 186 182
2 182 201
2 185 201
2 198 201
2 91 202
2 202 138
2 96 203
2 203 140
2 190 202
2 202 203
2 189 203
2 90 204
2 204 137
2 93 205
2 205 141
2 204 202
2 204 205
2 205 203
2 181 195
2 186 195
2 187 194
2 92 206
2 206 144
2 94 207
2 207 145
2 114 208
2 208 146
2 115 209
2 209 147
2 206 207
2 207 208
2 208 209
2 206 209
2 204 208
2 205 209
2 153 210
2 210 173
2 152 211
2 211 172
2 211 210
2 181 211
2 180 210
2 202 211
2 204 210
2 99 212
2 212 148
2 118 213
2 213 149
2 199 212
2 212 213
2 196 213
2 180 213
2 211 192
2 171 214
2 214 176
2 170 215
2 215 177
2 208 214
2 215 214
2 207 215
2 213 214
2 212 215
2 210 214

CELL_TYPES 540
3 
3 
3 
3 
3 
3 
3 
3 
3 
3 
3 
3 
3 
3 
3 
3 
3 
3 
3 
3 
3 
3 
3 
3 
3 
3 
3 
3 
3 
3 
3 
3 
3 
3 
3 
3 
3 
3 
3 
3 
3 
3 
3 
3 
3 
3 
3 
3 
3 
3 
3 
3 
3 
3 
3 
3 
3 
3 
3 
3 
3 
3 
3 
3 
3 
3 
3 
3 
3 
3 
3 
3 
3 
3 
3 
3 
3 
3 
3 
3 
3 
3 
3 
3 
3 
3 
3 
3 
3 
3 
3 
3 
3 
3 
3 
3 
3 
3 
3 
3 
3 
3 
3 
3 
3 
3 
3 
3 
3 
3 
3 
3 
3 
3 
3 
3 
3 
3 
3 
3 
3 
3 
3 
3 
3 
3 
3 
3 
3 
3 
3 
3 
3 
3 
3 
3 
3 
3 
3 
3 
3 
3 
3 
3 
3 
3 
3 
3 
3 
3 
3 
3 
3 
3 
3 
3 
3 
3 
3 
3 
3 
3 
3 
3 
3 
3 
3 
3 
3 
3 
3 
3 
3 
3 
3 
3 
3 
3 
3 
3 
3 
3 
3 
3 
3 
3 
3 
3 
3 
3 
3 
3 
3 
3 
3 
3 
3 
3 
3 
3 
3 
3 
3 
3 
3 
3 
3 
3 
3 
3 
3 
3 
3 
3 
3 
3 
3 
3 
3 
3 
3 
3 
3 
3 
3 
3 
3 
3 
3 
3 
3 
3 
3 
3 
3 
3 
3 
3 
3 
3 
3 
3 
3 
3 
3 
3 
3 
3 
3 
3 
3 
3 
3 
3 
3 
3 
3 
3 
3 
3 
3 
3 
3 
3 
3 
3 
3 
3 
3 
3 
3 
3 
3 
3 
3 
3 
3 
3 
3 
3 
3 
3 
3 
3 
3 
3 
3 
3 
3 
3 
3 
3 
3 
3 
3 
3 
3 
3 
3 
3 
3 
3 
3 
3 
3 
3 
3 
3 
3 
3 
3 
3 
3 
3 
3 
3 
3 
3 
3 
3 
3 
3 
3 
3 
3 
3 
3 
3 
3 
3 
3 
3 
3 
3 
3 
3 
3 
3 
3 
3 
3 
3 
3 
3 
3 
3 
3 
3 
3 
3 
3 
3 
3 
3 
3 
3 
3 
3 
3 
3 
3 
3 
3 
3 
3 
3 
3 
3 
3 
3 
3 
3 
3 
3 
3 
3 
3 
3 
3 
3 
3 
3 
3 
3 
3 
3 
3 
3 
3 
3 
3 
3 
3 
3 
3 
3 
3 
3 
3 
3 
3 
3 
3 
3 
3 
3 
3 
3 
3 
3 
3 
3 
3 
3 
3 
3 
3 
3 
3 
3 
3 
3 
3 
3 
3 
3 
3 
3 
3 
3 
3 
3 
3 
3 
3 
3 
3 
3 
3 
3 
3 
3 
3 
3 
3 
3 
3 
3 
3 
3 
3 
3 
3 
3 
3 
3 
3 
3 
3 
3 
3 
3 
3 
3 
3 
3 
3 
3 
3 
3 
3 
3 
3 
3 
3 
3 
3 
3 
3 
3 
3 
3 
3 
3 
3 
3 
3 
3 
3 
3 
3 
3 
3 
3 
3 
3 
3 
3 
3 
3 
3 
3 
3 
3 
3 
3 
3 
3 
3 
3 
3 
3 
3 
3 
3 
3 
3 
3 
3 
3 
3 
3 
3 
3 
3 
3 
3 
3 
3 
3 
3 
3 
3 
3 
3 
3 
3 
3 
3 
3 
POINT_DATA 216
SCALARS GMDS_ID int 1
LOOKUP_TABLE default
0 1 2 3 4 5 6 7 8 9 10 11 12 13 14 15 16 17 18 19 20 21 22 23 24 25 26 27 28 29 30 31 32 33 34 35 36 37 38 39 40 41 42 43 44 45 46 47 48 49 50 51 52 53 54 55 56 57 58 59 60 61 62 63 64 65 66 67 68 69 70 71 72 73 74 75 76 77 78 79 80 81 82 83 84 85 86 87 88 89 90 91 92 93 94 95 96 97 98 99 100 101 102 103 104 105 106 107 108 109 110 111 112 113 114 115 116 117 118 119 120 121 122 123 124 125 126 127 128 129 130 131 132 133 134 135 136 137 138 139 140 141 142 143 144 145 146 147 148 149 150 151 152 153 154 155 156 157 158 159 160 161 162 163 164 165 166 167 168 169 170 171 172 173 174 175 176 177 178 179 180 181 182 183 184 185 186 187 188 189 190 191 192 193 194 195 196 197 198 199 200 201 202 203 204 205 206 207 208 209 210 211 212 213 214 215 
SCALARS geom_link_dim int 1
LOOKUP_TABLE default
1 1 1 1 1 1 1 1 2 2 2 2 2 2 3 3 2 2 2 2 3 3 2 2 2 2 3 3 3 3 2 2 3 3 3 3 2 2 2 2 3 3 3 3 3 3 2 2 2 2 2 3 0 3 2 3 1 3 3 0 3 2 0 1 1 0 0 2 3 3 3 3 1 3 3 2 3 0 3 2 3 1 3 3 0 3 2 0 1 1 0 0 2 3 3 3 3 1 3 3 0 3 2 3 0 3 2 3 2 3 0 3 3 0 0 3 3 2 0 3 0 0 0 0 2 3 0 3 2 3 0 3 0 3 3 3 2 0 0 3 3 3 0 3 2 3 0 3 3 0 0 0 0 0 2 3 0 3 0 3 2 3 0 3 3 0 3 2 3 3 3 0 0 0 3 3 0 3 3 2 0 0 0 0 2 3 0 3 2 3 0 3 0 3 3 0 0 3 3 3 2 3 0 3 0 3 2 3 0 3 0 0 3 0 0 3 
SCALARS geom_link_id int 1
LOOKUP_TABLE default
10 12 16 13 9 11 15 14 19 29 26 31 21 33 13 10 27 32 19 31 13 10 26 29 21 33 13 10 13 10 27 32 10 13 13 10 19 31 29 26 13 10 10 13 13 10 21 33 27 32 28 18 0 12 20 11 18 12 11 0 17 30 0 19 20 0 0 25 18 17 11 18 17 12 17 28 18 0 12 20 11 21 12 11 0 17 30 0 23 24 0 0 25 18 17 11 18 22 12 17 0 11 31 13 0 11 19 10 29 10 0 18 10 0 0 18 13 26 0 13 0 0 0 0 20 11 0 12 28 18 0 12 0 11 11 17 30 0 0 11 18 18 0 12 25 17 0 18 17 0 0 0 0 0 21 10 0 12 0 12 33 13 0 12 10 0 10 32 17 10 17 0 0 0 13 13 0 17 13 27 -1 -1 -1 -1 20 11 -1 12 28 18 -1 12 -1 12 12 -1 -1 11 11 17 30 11 -1 18 -1 18 25 17 -1 18 -1 -1 17 -1 -1 17 


CELL_DATA 540
SCALARS GMDS_ID int 1
LOOKUP_TABLE default
0 1 2 3 4 5 6 7 8 9 10 11 12 13 14 15 16 17 18 19 20 21 22 23 24 25 26 27 28 29 30 31 32 33 34 35 36 37 38 39 41 42 43 44 45 46 47 48 49 50 51 52 53 54 55 56 57 58 59 60 61 62 63 64 65 66 67 68 69 70 72 73 74 75 76 77 78 79 80 81 82 83 84 85 86 87 88 89 90 91 92 93 94 95 96 97 98 99 100 101 102 103 104 105 106 107 108 109 110 111 112 113 114 115 116 117 118 119 120 121 122 123 124 125 126 127 128 129 130 131 132 133 134 135 136 137 138 139 141 142 143 144 145 146 147 148 149 150 151 152 153 154 155 156 157 158 159 160 161 162 163 165 167 168 169 170 171 172 173 174 175 176 177 178 179 180 181 182 183 184 185 186 187 188 189 190 191 192 193 194 195 196 197 198 199 200 201 202 203 204 205 206 207 208 209 210 211 212 213 214 215 216 217 218 219 220 221 222 223 224 225 226 227 228 230 232 233 234 235 236 237 238 239 240 241 242 243 244 245 246 247 248 249 250 251 252 253 254 255 256 257 259 260 261 262 263 264 265 266 267 268 269 270 271 272 273 274 275 276 277 278 279 280 281 282 283 284 285 286 287 288 289 290 291 292 293 294 295 296 297 298 299 300 301 302 303 304 305 306 307 308 309 311 313 315 317 318 319 320 321 323 325 327 328 329 330 331 333 335 336 337 338 340 342 343 344 345 347 348 349 350 351 353 354 355 356 358 359 360 362 363 364 365 367 368 369 370 372 374 376 378 379 380 381 382 383 384 386 388 389 390 391 392 393 394 395 396 397 398 399 400 401 402 403 404 405 408 409 410 411 412 413 414 415 416 417 418 419 420 421 422 423 424 425 426 427 428 429 430 431 432 433 434 435 436 437 438 439 440 441 442 443 444 445 447 449 450 451 452 453 454 455 456 457 458 459 460 461 463 465 466 467 468 469 470 471 472 473 474 475 476 477 478 479 480 481 482 483 484 485 486 487 488 489 490 491 492 493 494 495 496 497 498 499 500 501 502 503 504 505 506 507 508 509 510 511 512 513 514 515 516 517 518 519 520 521 522 523 524 525 526 527 528 529 530 531 532 533 534 535 536 537 538 539 540 541 542 543 544 545 546 547 548 549 550 551 552 553 554 555 556 557 558 559 560 561 562 563 564 565 566 567 568 569 570 571 572 573 574 575 

SCALARS geom_link_dim int 1
LOOKUP_TABLE default
0 2 2 0 0 0 2 2 0 0 0 0 2 0 2 0 2 0 2 2 0 0 0 0 0 0 0 0 0 0 0 0 2 0 2 0 0 0 2 0 0 0 0 0 0 0 0 0 0 0 0 0 0 0 0 0 0 0 0 0 0 0 0 0 2 2 2 0 0 0 0 0 0 0 2 2 2 2 0 0 0 2 2 2 2 0 0 0 0 0 0 0 0 0 0 0 0 0 0 0 2 0 2 2 0 0 0 2 0 2 0 0 0 0 0 2 0 0 0 0 0 0 0 0 0 0 0 0 0 0 0 0 0 2 0 0 0 0 0 0 0 0 0 2 0 2 0 0 0 0 0 0 0 0 2 2 2 0 2 0 0 0 0 0 2 2 0 0 0 0 0 0 0 0 0 0 0 2 2 2 0 0 0 0 0 0 2 0 2 0 0 0 0 0 0 2 0 0 0 0 0 0 0 2 0 2 0 0 2 0 0 0 2 0 2 0 0 2 2 0 0 0 0 0 0 0 0 2 2 0 0 0 0 0 0 0 0 0 2 0 2 2 2 0 0 0 0 0 0 0 0 0 0 2 2 0 0 0 0 0 0 0 0 0 0 0 0 0 0 0 0 0 0 0 0 0 0 0 0 0 0 0 0 2 2 0 0 0 0 0 0 0 0 0 0 0 0 0 0 0 0 0 2 0 0 0 0 0 0 0 0 0 0 0 0 0 0 0 2 0 0 0 0 0 0 0 0 0 0 0 0 0 0 0 0 0 0 0 0 0 0 0 0 0 0 0 0 2 0 0 0 0 0 0 0 0 0 0 0 0 0 0 0 0 0 0 0 0 0 0 0 0 0 0 0 0 0 0 0 0 0 0 0 0 0 0 0 0 2 2 0 0 0 0 0 0 0 0 0 0 0 0 0 0 0 0 0 0 0 0 0 0 0 0 0 0 0 0 0 0 0 0 0 0 0 0 0 0 0 0 0 2 2 0 0 0 0 0 0 0 0 0 0 0 0 0 0 0 0 0 0 0 0 0 0 0 0 0 0 0 0 0 0 0 0 0 0 0 2 2 0 0 0 0 0 0 0 0 0 0 0 0 0 0 0 0 0 0 0 0 0 0 0 0 0 0 0 0 2 2 0 0 0 0 0 0 0 0 0 0 0 0 0 0 0 0 0 0 0 0 0 0 0 0 0 0 0 0 0 0 0 0 0 0 0 0 0 0 0 0 

SCALARS geom_link_id int 1
LOOKUP_TABLE default
0 28 33 0 0 0 21 20 0 0 -1 -1 19 0 29 0 26 0 31 21 0 0 0 0 0 0 0 0 0 0 0 0 27 0 32 0 0 0 33 0 0 0 0 0 0 0 -1 0 0 0 0 0 0 0 0 0 0 0 0 0 0 -1 0 0 27 28 32 0 0 0 0 0 0 0 19 19 31 31 0 0 0 29 29 26 26 0 0 0 0 0 0 0 -1 0 -1 0 0 0 0 -1 21 -1 33 12 0 0 -1 27 -1 32 0 0 0 0 0 20 0 0 0 0 0 0 0 0 0 0 0 0 0 0 0 0 0 30 0 0 0 0 0 0 0 0 0 19 0 23 0 0 0 0 0 0 0 -1 28 25 31 0 21 0 0 0 0 0 19 13 0 0 0 0 0 0 0 0 0 0 0 34 20 11 0 0 0 -1 0 0 31 -1 20 0 0 0 0 0 0 30 0 0 0 0 0 0 0 18 0 35 0 0 6 0 0 0 33 0 33 0 -1 28 25 0 0 0 0 0 0 0 0 21 24 0 0 0 0 0 0 0 0 0 36 0 4 20 22 0 0 0 -1 0 0 0 -1 0 0 29 29 0 0 0 0 0 0 0 0 0 0 0 0 0 0 -1 0 -1 0 0 0 0 0 0 0 0 0 0 0 26 26 0 0 0 0 0 0 -1 0 0 0 -1 0 0 0 0 0 0 28 0 0 0 0 0 0 0 0 0 0 0 0 0 0 0 30 0 0 0 0 0 0 -1 -1 0 0 0 0 0 0 0 0 0 0 0 0 0 0 -1 0 0 0 -1 0 25 0 0 0 0 0 0 0 0 0 0 0 -1 0 -1 0 0 0 0 0 0 0 0 0 0 0 0 0 0 0 0 0 0 0 0 0 0 0 0 0 0 32 32 0 0 0 0 0 0 0 0 0 0 0 0 0 0 0 0 0 0 0 0 0 0 0 0 0 0 0 0 0 0 0 0 0 0 0 0 0 0 0 0 0 27 27 0 0 0 0 0 -1 -1 -1 -1 -1 -1 -1 -1 -1 -1 -1 -1 -1 -1 -1 -1 -1 -1 -1 -1 -1 -1 -1 -1 -1 -1 -1 -1 -1 -1 30 30 -1 -1 -1 -1 -1 -1 -1 -1 -1 -1 -1 -1 -1 -1 -1 -1 -1 -1 -1 -1 -1 -1 -1 -1 -1 -1 -1 -1 25 25 -1 -1 -1 -1 -1 -1 -1 -1 -1 -1 -1 -1 -1 -1 -1 -1 -1 -1 -1 -1 -1 -1 -1 -1 -1 -1 -1 -1 -1 -1 -1 -1 -1 -1 -1 -1 -1 -1 -1 -1 

