# vtk DataFile Version 3.0
Generated by GMDS VTK Writer

ASCII
DATASET UNSTRUCTURED_GRID
POINTS 336 float
0 0 0
0 10 0
10 10 0
10 0 0
0 0 10
0 10 10
10 10 10
10 0 10
0 1 0
0 1 10
10 1 10
10 1 0
0 0 4
10 0 4
10 1 4
0 1 4
10 10 4
0 10 4
0 3 0
10 3 0
10 3 4
0 3 4
10 3 10
0 3 10
0 0 5
10 0 5
10 1 5
0 1 5
0 10 5
10 10 5
10 3 5
0 3 5
0 4 0
10 4 0
10 4 4
0 4 4
0 4 10
10 4 10
10 4 5
0 4 5
0 8 0
10 8 0
10 8 4
0 8 4
0 8 10
10 8 10
10 8 5
0 8 5
0 10 7
10 10 7
10 8 7
0 8 7
0 0 7
10 0 7
10 1 7
0 1 7
0 3 7
10 3 7
0 4 7
10 4 7
0 10 9
10 10 9
10 8 9
0 8 9
0 0 9
10 0 9
10 1 9
0 1 9
0 3 9
10 3 9
0 4 9
10 4 9
1 0 0
1 1 0
1 1 4
1 0 4
1 3 0
1 3 4
1 0 5
1 1 5
1 0 9
1 1 9
1 1 7
1 0 7
1 4 0
1 4 4
1 0 10
1 1 10
1 8 0
1 8 4
1 10 0
1 10 4
1 3 5
1 10 7
1 8 7
1 8 5
1 10 5
1 4 5
1 10 9
1 8 9
1 10 10
1 8 10
1 3 7
1 4 7
1 3 10
1 3 9
1 4 10
1 4 9
3 0 0
3 1 0
3 1 4
3 0 4
3 3 0
3 3 4
3 0 5
3 1 5
3 0 9
3 1 9
3 1 7
3 0 7
3 4 0
3 4 4
3 0 10
3 1 10
3 8 0
3 8 4
3 10 0
3 10 4
3 3 5
3 10 7
3 8 7
3 8 5
3 10 5
3 4 5
3 10 9
3 8 9
3 10 10
3 8 10
3 3 7
3 4 7
3 3 10
3 3 9
3 4 10
3 4 9
5 0 0
5 1 0
5 1 4
5 0 4
5 3 0
5 3 4
5 0 5
5 1 5
5 0 9
5 1 9
5 1 7
5 0 7
5 4 0
5 4 4
5 0 10
5 1 10
5 8 0
5 8 4
5 10 0
5 10 4
5 3 5
5 10 7
5 8 7
5 8 5
5 10 5
5 4 5
5 10 9
5 8 9
5 10 10
5 8 10
5 3 7
5 4 7
5 3 10
5 3 9
5 4 10
5 4 9
3 5 0
3 5 4
1 5 4
1 5 0
0 5 4
0 5 0
5 5 0
5 5 4
10 5 0
10 5 4
1 5 5
0 5 5
1 5 7
0 5 7
1 5 10
1 5 9
0 5 9
0 5 10
3 5 5
3 5 7
3 5 10
3 5 9
10 5 5
5 5 5
10 5 7
5 5 7
10 5 10
10 5 9
5 5 9
5 5 10
1 6 7
1 6 9
0 6 9
0 6 7
1 6 10
0 6 10
1 6 5
0 6 5
1 6 4
0 6 4
10 6 0
10 6 4
5 6 4
5 6 0
3 6 4
3 6 0
1 6 0
0 6 0
3 6 5
3 6 7
3 6 10
3 6 9
10 6 5
5 6 5
10 6 7
5 6 7
10 6 10
10 6 9
5 6 9
5 6 10
7 0 0
7 1 0
7 1 4
7 0 4
7 3 0
7 3 4
7 0 5
7 1 5
7 0 9
7 1 9
7 1 7
7 0 7
7 4 0
7 4 4
7 0 10
7 1 10
7 10 0
7 10 4
7 8 4
7 8 0
7 3 5
7 10 7
7 8 7
7 8 5
7 10 5
7 4 5
7 10 9
7 8 9
7 10 10
7 8 10
7 3 7
7 4 7
7 3 10
7 3 9
7 4 10
7 4 9
7 6 0
7 6 4
7 5 0
7 5 4
7 5 5
7 5 7
7 5 9
7 5 10
7 6 5
7 6 7
7 6 9
7 6 10
3 10 3
3 8 3
1 8 3
1 10 3
1 1 3
1 3 3
0 3 3
0 1 3
3 3 3
3 4 3
1 4 3
3 6 3
5 6 3
5 8 3
5 10 3
3 5 3
5 5 3
3 1 3
1 0 3
0 0 3
3 0 3
0 4 3
5 3 3
5 4 3
0 8 3
0 10 3
5 1 3
5 0 3
7 3 3
7 4 3
10 3 3
10 4 3
1 5 3
0 5 3
7 1 3
10 1 3
7 0 3
10 0 3
0 6 3
1 6 3
10 10 3
10 8 3
7 8 3
7 10 3
10 6 3
7 6 3
10 5 3
7 5 3

CELLS 862 2586
2 32 18
2 181 187
2 118 117
2 48 28
2 112 76
2 217 213
2 18 8
2 17 43
2 16 42
2 0 8
2 6 61
2 4 9
2 24 12
2 7 10
2 5 60
2 3 11
2 60 48
2 20 14
2 111 110
2 19 11
2 116 117
2 75 74
2 33 19
2 119 83
2 13 14
2 157 187
2 12 15
2 49 29
2 72 73
2 25 13
2 66 249
2 26 14
2 211 99
2 21 15
2 249 153
2 118 82
2 192 210
2 22 10
2 1 40
2 23 9
2 34 20
2 35 21
2 61 49
2 27 15
2 156 186
2 25 26
2 117 81
2 24 27
2 110 113
2 28 17
2 29 16
2 62 50
2 30 20
2 45 62
2 31 21
2 110 74
2 2 41
2 116 80
2 216 217
2 26 30
2 27 31
2 108 72
2 111 114
2 51 47
2 36 23
2 37 22
2 38 30
2 50 46
2 39 31
2 302 163
2 44 63
2 185 183
2 63 51
2 34 38
2 35 39
2 180 186
2 109 73
2 5 44
2 213 51
2 6 45
2 213 212
2 29 46
2 216 210
2 28 47
2 196 212
2 61 62
2 114 78
2 60 63
2 42 46
2 43 47
2 113 77
2 49 50
2 33 188
2 48 51
2 90 291
2 52 24
2 72 0
2 53 25
2 144 145
2 54 26
2 73 8
2 55 27
2 111 75
2 53 54
2 114 115
2 52 55
2 147 146
2 56 31
2 74 15
2 57 30
2 110 115
2 54 57
2 55 56
2 75 12
2 58 39
2 59 38
2 115 79
2 57 59
2 56 58
2 190 216
2 212 63
2 4 64
2 64 52
2 7 65
2 65 53
2 10 66
2 66 54
2 9 67
2 67 55
2 108 109
2 65 66
2 64 67
2 23 68
2 68 56
2 22 69
2 69 57
2 109 112
2 66 69
2 67 68
2 36 70
2 70 58
2 37 71
2 71 59
2 248 152
2 69 71
2 68 70
2 194 214
2 193 213
2 147 111
2 76 18
2 77 21
2 74 77
2 73 76
2 124 289
2 78 24
2 145 148
2 79 27
2 78 79
2 74 79
2 75 78
2 80 64
2 146 149
2 81 67
2 150 114
2 82 55
2 149 113
2 83 52
2 80 81
2 82 81
2 83 82
2 83 80
2 146 110
2 84 32
2 290 89
2 85 35
2 77 85
2 76 84
2 148 112
2 86 4
2 88 290
2 87 9
2 86 87
2 87 81
2 86 80
2 289 125
2 88 40
2 145 109
2 89 43
2 195 211
2 210 94
2 144 108
2 90 1
2 288 127
2 91 17
2 91 89
2 90 88
2 291 91
2 92 31
2 79 92
2 77 92
2 152 153
2 93 48
2 154 153
2 94 51
2 155 119
2 95 47
2 289 288
2 96 28
2 93 94
2 95 94
2 96 95
2 96 93
2 73 292
2 97 39
2 85 97
2 92 97
2 18 294
2 98 60
2 154 118
2 99 63
2 98 99
2 94 99
2 93 98
2 76 293
2 100 5
2 151 115
2 101 44
2 100 101
2 101 99
2 100 98
2 91 96
2 89 95
2 214 211
2 79 82
2 78 83
2 150 151
2 102 56
2 82 102
2 92 102
2 153 117
2 103 58
2 102 103
2 97 103
2 212 215
2 146 151
2 104 23
2 147 150
2 105 68
2 87 104
2 104 105
2 81 105
2 102 105
2 290 291
2 106 36
2 152 116
2 107 70
2 104 106
2 106 107
2 105 107
2 103 107
2 210 211
2 197 215
2 119 118
2 119 116
2 39 191
2 120 84
2 97 190
2 121 85
2 113 121
2 112 120
2 120 180
2 122 86
2 32 185
2 123 87
2 122 123
2 123 117
2 122 116
2 26 247
2 124 88
2 288 302
2 125 89
2 182 218
2 218 89
2 243 246
2 126 90
2 121 181
2 127 91
2 127 125
2 126 124
2 65 248
2 128 92
2 115 128
2 113 128
2 85 182
2 129 93
2 130 94
2 182 181
2 131 95
2 242 247
2 132 96
2 129 130
2 131 130
2 132 131
2 132 129
2 34 189
2 133 97
2 121 133
2 128 133
2 84 183
2 134 98
2 135 99
2 134 135
2 130 135
2 129 134
2 247 151
2 136 100
2 246 150
2 137 101
2 136 137
2 137 135
2 136 134
2 127 132
2 125 131
2 191 217
2 115 118
2 114 119
2 138 102
2 118 138
2 128 138
2 183 180
2 139 103
2 138 139
2 133 139
2 214 215
2 3 240
2 140 104
2 184 182
2 141 105
2 123 140
2 140 141
2 117 141
2 138 141
2 35 184
2 142 106
2 240 144
2 143 107
2 140 142
2 142 143
2 141 143
2 139 143
2 211 212
2 215 44
2 155 154
2 155 152
2 301 302
2 156 120
2 162 302
2 157 121
2 149 157
2 148 156
2 290 289
2 158 122
2 291 288
2 159 123
2 158 159
2 159 153
2 158 152
2 300 299
2 160 124
2 301 300
2 161 125
2 184 219
2 219 43
2 126 288
2 162 126
2 293 296
2 163 127
2 163 161
2 162 160
2 293 77
2 164 128
2 151 164
2 149 164
2 225 299
2 165 129
2 223 300
2 166 130
2 300 222
2 167 131
2 299 224
2 168 132
2 165 166
2 167 166
2 168 167
2 168 165
2 292 74
2 169 133
2 157 169
2 164 169
2 297 121
2 170 134
2 84 298
2 171 135
2 170 171
2 166 171
2 165 170
2 296 113
2 172 136
2 120 297
2 173 137
2 172 173
2 173 171
2 172 170
2 163 168
2 161 167
2 217 47
2 151 154
2 150 155
2 294 21
2 174 138
2 154 174
2 164 174
2 8 295
2 175 139
2 174 175
2 169 175
2 216 95
2 295 15
2 176 140
2 292 293
2 177 141
2 159 176
2 176 177
2 153 177
2 174 177
2 295 294
2 178 142
2 294 293
2 179 143
2 176 178
2 178 179
2 177 179
2 175 179
2 210 213
2 214 101
2 11 241
2 182 190
2 191 190
2 184 191
2 103 192
2 20 245
2 58 193
2 241 145
2 190 192
2 193 192
2 191 193
2 106 194
2 13 243
2 107 195
2 19 244
2 70 196
2 14 242
2 36 197
2 242 146
2 194 195
2 196 195
2 197 196
2 197 194
2 192 195
2 193 196
2 133 198
2 246 247
2 181 198
2 190 198
2 139 199
2 245 149
2 198 199
2 192 199
2 142 200
2 243 147
2 143 201
2 244 148
2 200 201
2 195 201
2 194 200
2 199 201
2 38 202
2 241 244
2 169 203
2 25 246
2 189 202
2 160 301
2 187 203
2 198 203
2 59 204
2 175 205
2 242 245
2 202 204
2 298 297
2 203 205
2 199 205
2 37 206
2 240 241
2 71 207
2 243 242
2 179 208
2 178 209
2 206 207
2 298 85
2 209 208
2 295 292
2 201 208
2 200 209
2 204 207
2 205 208
2 218 216
2 219 217
2 218 219
2 188 220
2 220 41
2 189 221
2 221 42
2 187 222
2 222 161
2 186 223
2 223 160
2 289 301
2 289 299
2 181 224
2 224 125
2 180 225
2 225 124
2 224 222
2 225 223
2 183 226
2 226 88
2 185 227
2 227 40
2 226 227
2 224 218
2 225 226
2 198 228
2 228 131
2 224 228
2 216 228
2 199 229
2 229 130
2 228 229
2 210 229
2 200 230
2 230 137
2 201 231
2 231 135
2 230 231
2 211 231
2 214 230
2 229 231
2 202 232
2 232 46
2 203 233
2 233 167
2 221 232
2 301 161
2 222 233
2 228 233
2 204 234
2 234 50
2 205 235
2 235 166
2 232 234
2 293 298
2 233 235
2 229 235
2 206 236
2 236 45
2 207 237
2 237 62
2 208 238
2 238 171
2 209 239
2 239 173
2 236 237
2 296 297
2 238 239
2 112 296
2 231 238
2 230 239
2 234 237
2 235 238
2 54 250
2 250 154
2 53 251
2 251 155
2 248 249
2 250 249
2 251 250
2 251 248
2 33 252
2 252 156
2 34 253
2 253 157
2 245 253
2 244 252
2 7 254
2 254 158
2 10 255
2 255 159
2 254 255
2 255 249
2 254 248
2 2 256
2 256 162
2 16 257
2 257 163
2 42 258
2 258 161
2 41 259
2 259 160
2 257 258
2 256 259
2 30 260
2 260 164
2 247 260
2 245 260
2 49 261
2 261 165
2 50 262
2 262 166
2 46 263
2 263 167
2 29 264
2 264 168
2 261 262
2 263 262
2 264 263
2 264 261
2 38 265
2 265 169
2 253 265
2 260 265
2 61 266
2 266 170
2 62 267
2 267 171
2 266 267
2 262 267
2 261 266
2 6 268
2 268 172
2 45 269
2 269 173
2 268 269
2 269 267
2 268 266
2 257 264
2 258 263
2 247 250
2 246 251
2 57 270
2 270 174
2 250 270
2 260 270
2 59 271
2 271 175
2 270 271
2 265 271
2 22 272
2 272 176
2 69 273
2 273 177
2 255 272
2 272 273
2 249 273
2 270 273
2 37 274
2 274 178
2 71 275
2 275 179
2 272 274
2 274 275
2 273 275
2 271 275
2 220 276
2 276 223
2 221 277
2 277 222
2 258 277
2 259 276
2 188 278
2 278 186
2 189 279
2 279 187
2 279 277
2 278 276
2 253 279
2 252 278
2 202 280
2 280 203
2 265 280
2 279 280
2 204 281
2 281 205
2 271 281
2 280 281
2 207 282
2 282 208
2 206 283
2 283 209
2 275 282
2 283 282
2 274 283
2 281 282
2 232 284
2 284 233
2 280 284
2 277 284
2 263 284
2 234 285
2 285 235
2 281 285
2 284 285
2 262 285
2 237 286
2 286 238
2 236 287
2 287 239
2 282 286
2 287 286
2 283 287
2 267 286
2 269 287
2 285 286
2 180 303
2 303 181
2 186 304
2 304 187
2 303 304
2 304 300
2 303 299
2 109 305
2 305 110
2 305 296
2 292 305
2 72 306
2 306 75
2 0 307
2 307 12
2 306 292
2 307 295
2 307 306
2 108 308
2 308 111
2 308 305
2 306 308
2 32 309
2 309 35
2 309 298
2 294 309
2 148 310
2 310 149
2 156 311
2 311 157
2 310 311
2 297 311
2 296 310
2 40 312
2 312 43
2 1 313
2 313 17
2 312 290
2 313 312
2 313 291
2 145 314
2 314 146
2 314 310
2 305 314
2 144 315
2 315 147
2 315 314
2 308 315
2 244 316
2 316 245
2 252 317
2 317 253
2 316 317
2 311 317
2 310 316
2 19 318
2 318 20
2 33 319
2 319 34
2 318 319
2 319 317
2 318 316
2 311 304
2 297 303
2 183 320
2 320 182
2 185 321
2 321 184
2 298 320
2 320 321
2 309 321
2 303 320
2 241 322
2 322 242
2 322 316
2 314 322
2 11 323
2 323 14
2 323 318
2 323 322
2 240 324
2 324 243
2 324 322
2 315 324
2 3 325
2 325 13
2 325 323
2 325 324
2 227 326
2 326 219
2 226 327
2 327 218
2 321 326
2 327 326
2 320 327
2 312 326
2 290 327
2 299 327
2 2 328
2 328 16
2 41 329
2 329 42
2 259 330
2 330 258
2 256 331
2 331 257
2 328 329
2 329 330
2 331 330
2 328 331
2 301 330
2 302 331
2 220 332
2 332 221
2 276 333
2 333 277
2 329 332
2 332 333
2 330 333
2 300 333
2 188 334
2 334 189
2 278 335
2 335 279
2 334 332
2 333 335
2 334 335
2 304 335
2 319 334
2 317 335

CELL_TYPES 862
3 
3 
3 
3 
3 
3 
3 
3 
3 
3 
3 
3 
3 
3 
3 
3 
3 
3 
3 
3 
3 
3 
3 
3 
3 
3 
3 
3 
3 
3 
3 
3 
3 
3 
3 
3 
3 
3 
3 
3 
3 
3 
3 
3 
3 
3 
3 
3 
3 
3 
3 
3 
3 
3 
3 
3 
3 
3 
3 
3 
3 
3 
3 
3 
3 
3 
3 
3 
3 
3 
3 
3 
3 
3 
3 
3 
3 
3 
3 
3 
3 
3 
3 
3 
3 
3 
3 
3 
3 
3 
3 
3 
3 
3 
3 
3 
3 
3 
3 
3 
3 
3 
3 
3 
3 
3 
3 
3 
3 
3 
3 
3 
3 
3 
3 
3 
3 
3 
3 
3 
3 
3 
3 
3 
3 
3 
3 
3 
3 
3 
3 
3 
3 
3 
3 
3 
3 
3 
3 
3 
3 
3 
3 
3 
3 
3 
3 
3 
3 
3 
3 
3 
3 
3 
3 
3 
3 
3 
3 
3 
3 
3 
3 
3 
3 
3 
3 
3 
3 
3 
3 
3 
3 
3 
3 
3 
3 
3 
3 
3 
3 
3 
3 
3 
3 
3 
3 
3 
3 
3 
3 
3 
3 
3 
3 
3 
3 
3 
3 
3 
3 
3 
3 
3 
3 
3 
3 
3 
3 
3 
3 
3 
3 
3 
3 
3 
3 
3 
3 
3 
3 
3 
3 
3 
3 
3 
3 
3 
3 
3 
3 
3 
3 
3 
3 
3 
3 
3 
3 
3 
3 
3 
3 
3 
3 
3 
3 
3 
3 
3 
3 
3 
3 
3 
3 
3 
3 
3 
3 
3 
3 
3 
3 
3 
3 
3 
3 
3 
3 
3 
3 
3 
3 
3 
3 
3 
3 
3 
3 
3 
3 
3 
3 
3 
3 
3 
3 
3 
3 
3 
3 
3 
3 
3 
3 
3 
3 
3 
3 
3 
3 
3 
3 
3 
3 
3 
3 
3 
3 
3 
3 
3 
3 
3 
3 
3 
3 
3 
3 
3 
3 
3 
3 
3 
3 
3 
3 
3 
3 
3 
3 
3 
3 
3 
3 
3 
3 
3 
3 
3 
3 
3 
3 
3 
3 
3 
3 
3 
3 
3 
3 
3 
3 
3 
3 
3 
3 
3 
3 
3 
3 
3 
3 
3 
3 
3 
3 
3 
3 
3 
3 
3 
3 
3 
3 
3 
3 
3 
3 
3 
3 
3 
3 
3 
3 
3 
3 
3 
3 
3 
3 
3 
3 
3 
3 
3 
3 
3 
3 
3 
3 
3 
3 
3 
3 
3 
3 
3 
3 
3 
3 
3 
3 
3 
3 
3 
3 
3 
3 
3 
3 
3 
3 
3 
3 
3 
3 
3 
3 
3 
3 
3 
3 
3 
3 
3 
3 
3 
3 
3 
3 
3 
3 
3 
3 
3 
3 
3 
3 
3 
3 
3 
3 
3 
3 
3 
3 
3 
3 
3 
3 
3 
3 
3 
3 
3 
3 
3 
3 
3 
3 
3 
3 
3 
3 
3 
3 
3 
3 
3 
3 
3 
3 
3 
3 
3 
3 
3 
3 
3 
3 
3 
3 
3 
3 
3 
3 
3 
3 
3 
3 
3 
3 
3 
3 
3 
3 
3 
3 
3 
3 
3 
3 
3 
3 
3 
3 
3 
3 
3 
3 
3 
3 
3 
3 
3 
3 
3 
3 
3 
3 
3 
3 
3 
3 
3 
3 
3 
3 
3 
3 
3 
3 
3 
3 
3 
3 
3 
3 
3 
3 
3 
3 
3 
3 
3 
3 
3 
3 
3 
3 
3 
3 
3 
3 
3 
3 
3 
3 
3 
3 
3 
3 
3 
3 
3 
3 
3 
3 
3 
3 
3 
3 
3 
3 
3 
3 
3 
3 
3 
3 
3 
3 
3 
3 
3 
3 
3 
3 
3 
3 
3 
3 
3 
3 
3 
3 
3 
3 
3 
3 
3 
3 
3 
3 
3 
3 
3 
3 
3 
3 
3 
3 
3 
3 
3 
3 
3 
3 
3 
3 
3 
3 
3 
3 
3 
3 
3 
3 
3 
3 
3 
3 
3 
3 
3 
3 
3 
3 
3 
3 
3 
3 
3 
3 
3 
3 
3 
3 
3 
3 
3 
3 
3 
3 
3 
3 
3 
3 
3 
3 
3 
3 
3 
3 
3 
3 
3 
3 
3 
3 
3 
3 
3 
3 
3 
3 
3 
3 
3 
3 
3 
3 
3 
3 
3 
3 
3 
3 
3 
3 
3 
3 
3 
3 
3 
3 
3 
3 
3 
3 
3 
3 
3 
3 
3 
3 
3 
3 
3 
3 
3 
3 
3 
3 
3 
3 
3 
3 
3 
3 
3 
3 
3 
3 
3 
3 
3 
3 
3 
3 
3 
3 
3 
3 
3 
3 
3 
3 
3 
3 
3 
3 
3 
3 
3 
3 
3 
3 
3 
3 
3 
3 
3 
3 
3 
3 
3 
3 
3 
3 
3 
3 
3 
3 
3 
3 
3 
3 
3 
3 
3 
3 
3 
3 
3 
3 
3 
3 
3 
3 
3 
3 
3 
3 
3 
3 
3 
3 
3 
3 
3 
3 
3 
3 
3 
3 
3 
3 
3 
3 
3 
3 
3 
3 
3 
3 
3 
3 
3 
3 
3 
3 
3 
3 
3 
3 
3 
3 
3 
3 
3 
3 
3 
3 
3 
3 
3 
3 
3 
3 
3 
3 
3 
3 
3 
3 
3 
3 
3 
3 
3 
3 
3 
3 
3 
3 
3 
3 
3 
3 
3 
POINT_DATA 336
SCALARS GMDS_ID int 1
LOOKUP_TABLE default
0 1 2 3 4 5 6 7 8 9 10 11 12 13 14 15 16 17 18 19 20 21 22 23 24 25 26 27 28 29 30 31 32 33 34 35 36 37 38 39 40 41 42 43 44 45 46 47 48 49 50 51 52 53 54 55 56 57 58 59 60 61 62 63 64 65 66 67 68 69 70 71 72 73 74 75 76 77 78 79 80 81 82 83 84 85 86 87 88 89 90 91 92 93 94 95 96 97 98 99 100 101 102 103 104 105 106 107 108 109 110 111 112 113 114 115 116 117 118 119 120 121 122 123 124 125 126 127 128 129 130 131 132 133 134 135 136 137 138 139 140 141 142 143 144 145 146 147 148 149 150 151 152 153 154 155 156 157 158 159 160 161 162 163 164 165 166 167 168 169 170 171 172 173 174 175 176 177 178 179 180 181 182 183 184 185 186 187 188 189 190 191 192 193 194 195 196 197 198 199 200 201 202 203 204 205 206 207 208 209 210 211 212 213 214 215 216 217 218 219 220 221 222 223 224 225 226 227 228 229 230 231 232 233 234 235 236 237 238 239 240 241 242 243 244 245 246 247 248 249 250 251 252 253 254 255 256 257 258 259 260 261 262 263 264 265 266 267 268 269 270 271 272 273 274 275 276 277 278 279 280 281 282 283 284 285 286 287 288 289 290 291 292 293 294 295 296 297 298 299 300 301 302 303 304 305 306 307 308 309 310 311 312 313 314 315 316 317 318 319 320 321 322 323 324 325 326 327 328 329 330 331 332 333 334 335 
SCALARS geom_link_dim int 1
LOOKUP_TABLE default
0 1 0 1 0 1 1 1 1 1 2 2 0 2 3 2 2 2 2 2 1 1 2 2 0 2 3 2 2 2 1 1 2 2 1 1 2 2 1 1 2 1 3 3 2 2 3 3 1 2 3 1 0 2 3 2 3 3 3 3 1 2 3 1 0 2 3 2 3 3 3 3 1 1 0 2 3 0 2 0 2 0 0 2 3 0 1 1 3 0 2 3 0 2 0 0 3 0 2 0 2 3 0 0 3 0 3 0 2 3 0 3 3 0 3 0 3 0 0 3 3 0 2 3 3 0 2 3 0 1 0 0 3 0 1 0 2 3 0 0 3 0 3 0 2 3 0 3 3 0 3 0 3 0 0 3 3 0 2 3 3 0 2 3 0 3 0 0 3 0 3 0 2 3 0 0 3 0 3 0 3 0 0 3 3 2 1 0 2 3 0 3 0 3 3 0 3 2 0 0 3 0 3 0 3 0 2 3 0 1 0 0 3 3 3 2 0 3 0 3 2 3 0 1 0 3 3 2 0 0 3 0 3 0 3 0 2 3 0 1 2 3 0 3 3 0 3 0 3 0 0 3 3 0 2 3 2 3 0 3 0 3 0 0 3 0 3 0 2 3 0 0 3 0 3 0 1 0 1 0 0 0 0 1 0 0 0 1 3 0 0 3 0 0 3 2 0 0 0 0 0 0 3 0 0 0 2 0 3 3 0 0 3 2 0 3 0 0 3 3 0 3 0 3 3 2 3 0 1 1 0 3 3 0 3 0 
SCALARS geom_link_id int 1
LOOKUP_TABLE default
-1 7 -1 30 -1 2 14 16 8 1 34 30 -1 27 2 17 29 24 23 30 37 10 34 28 -1 27 2 17 24 29 38 9 23 30 40 12 28 34 39 11 23 29 2 5 28 34 2 5 6 29 2 5 -1 27 2 17 5 2 5 2 3 29 2 4 -1 27 2 17 5 2 5 2 31 32 0 15 3 0 15 0 15 0 0 15 3 0 15 13 3 0 22 1 0 31 0 0 1 0 21 0 19 4 0 0 4 0 4 0 26 3 0 14 3 0 14 0 14 0 0 14 3 0 25 4 3 0 22 1 0 25 0 0 1 0 24 0 19 4 0 0 4 0 4 0 26 3 0 14 3 0 14 0 14 0 0 14 3 0 25 4 3 0 22 1 0 1 0 0 1 0 1 0 19 4 0 0 4 0 4 0 3 0 0 3 5 23 34 0 30 2 0 5 0 5 4 0 5 28 0 0 4 0 2 0 2 0 34 2 0 18 0 0 5 5 4 28 0 5 0 5 30 2 0 33 0 3 3 23 0 0 4 0 2 0 2 0 34 2 0 17 26 3 0 14 3 0 14 0 14 0 0 14 3 0 25 4 22 1 0 3 0 1 0 0 1 0 1 0 19 4 0 0 4 0 4 0 36 0 35 0 0 0 0 19 0 0 0 20 1 -1 -1 1 -1 -1 5 17 -1 -1 -1 -1 -1 -1 1 -1 -1 -1 15 -1 14 5 -1 -1 5 24 -1 14 -1 -1 2 2 -1 5 -1 2 14 27 5 -1 23 41 -1 1 2 -1 2 -1 


CELL_DATA 862
SCALARS GMDS_ID int 1
LOOKUP_TABLE default
0 1 3 4 5 8 9 10 11 12 13 14 15 16 17 18 19 20 21 22 23 25 27 28 29 30 31 33 35 36 37 38 39 40 41 43 45 46 47 48 49 51 52 53 54 55 56 57 58 59 61 62 63 64 65 66 67 68 69 70 71 72 74 76 77 79 81 82 83 84 85 86 87 88 89 90 92 94 95 96 97 98 99 100 101 103 104 105 106 107 108 109 110 111 112 113 114 115 116 117 118 119 120 121 122 123 124 125 126 127 128 129 130 131 132 134 135 136 137 138 139 140 141 142 143 144 145 146 147 148 149 151 152 153 154 155 156 157 158 159 160 161 162 163 164 165 166 167 168 169 171 173 174 175 176 177 178 179 180 181 183 184 185 186 187 188 189 190 191 192 193 194 195 196 197 199 200 201 202 203 204 205 206 207 208 209 210 211 213 214 215 216 217 218 220 221 222 223 224 225 226 227 228 229 230 231 232 233 234 235 236 237 238 239 240 241 242 243 244 245 246 247 248 249 250 251 252 253 254 255 256 257 258 259 260 261 262 263 264 265 266 267 268 269 270 271 272 273 274 275 276 277 278 279 280 281 282 283 284 285 286 287 288 289 290 291 292 293 295 296 297 298 299 300 301 302 303 304 305 306 307 309 310 311 312 313 314 316 317 318 319 320 321 322 323 325 326 327 328 329 330 331 332 333 334 335 336 337 338 339 341 342 343 344 345 346 347 348 349 350 351 352 353 354 355 356 358 359 360 361 362 363 364 365 366 367 368 369 370 371 372 373 374 375 376 377 378 379 380 381 382 383 384 385 386 387 388 389 391 392 393 394 395 396 397 398 399 400 401 402 403 405 406 407 408 409 410 412 413 414 415 416 417 418 419 420 421 422 423 424 425 426 427 428 429 430 431 432 433 434 435 436 437 438 439 440 441 442 443 444 445 446 447 448 449 450 451 452 453 454 455 456 457 458 459 460 461 462 463 464 465 466 467 468 469 470 471 472 473 474 475 476 477 478 479 480 481 482 483 484 485 486 487 488 489 490 491 492 493 494 495 496 497 498 499 500 501 502 503 504 505 506 507 508 509 510 511 512 513 514 515 516 517 518 519 520 521 522 523 524 525 526 527 528 529 531 532 533 534 535 536 537 538 539 540 541 543 545 546 547 548 549 550 551 552 553 554 555 556 557 558 559 560 561 562 563 565 567 568 569 570 571 572 574 575 576 577 578 581 582 583 584 585 586 587 588 589 590 591 592 593 594 595 596 597 598 599 600 601 602 603 604 605 606 607 608 609 610 611 612 613 614 615 616 617 618 619 620 621 622 623 624 625 626 627 628 629 630 631 632 633 634 635 636 637 638 639 640 641 642 643 645 646 647 648 649 650 651 652 653 654 655 656 657 658 659 660 661 663 665 666 667 668 669 670 671 672 673 674 675 676 677 678 679 680 681 682 683 684 685 686 687 688 689 690 691 692 693 694 695 696 697 698 699 700 701 702 703 704 705 706 707 708 709 710 711 712 713 714 715 716 717 718 719 720 721 722 723 724 725 726 727 728 729 730 731 733 734 735 736 737 738 740 741 742 743 744 745 746 747 748 749 750 751 752 753 754 755 756 757 758 759 760 761 762 763 764 765 766 767 768 769 770 771 772 773 774 775 776 777 778 779 780 781 782 783 784 785 786 787 788 789 790 791 792 793 794 795 796 797 798 799 800 801 802 803 804 805 806 807 808 809 810 811 812 813 814 815 816 817 818 819 820 821 822 823 824 825 826 827 828 829 830 831 832 833 834 835 836 837 838 839 840 841 842 843 844 845 846 847 848 849 850 851 852 853 854 855 856 857 858 859 860 861 862 863 864 865 866 867 868 869 870 871 872 873 874 875 876 877 878 879 880 881 882 883 884 885 886 887 888 889 890 891 892 893 894 895 896 897 898 899 900 901 902 903 904 905 906 907 908 909 

SCALARS geom_link_dim int 1
LOOKUP_TABLE default
2 0 0 2 0 0 2 0 0 0 2 0 0 2 2 2 0 0 0 2 0 0 2 0 0 0 0 2 2 2 0 0 0 0 0 0 0 2 2 2 2 2 2 2 0 0 0 0 0 2 2 0 2 0 2 0 0 0 0 0 0 2 0 0 2 2 2 0 2 0 0 0 2 2 2 0 0 2 0 2 0 0 0 0 0 0 0 2 0 0 0 0 2 2 0 0 0 2 0 0 2 2 0 0 0 0 0 0 0 0 0 0 0 0 0 0 0 0 0 0 0 0 0 2 2 0 0 2 2 0 0 0 0 0 0 0 0 0 0 0 0 0 0 0 0 0 0 0 0 0 0 0 0 0 0 0 0 0 0 2 0 0 0 0 0 0 0 0 0 0 2 0 0 0 0 0 0 0 0 0 2 2 0 2 0 0 0 0 0 0 2 0 0 0 0 0 0 0 0 0 0 2 0 0 0 0 0 0 0 0 0 0 0 0 0 0 0 2 0 0 0 0 0 0 2 0 0 0 0 0 0 0 0 0 2 0 0 0 0 0 0 0 0 0 0 0 0 0 0 0 0 0 0 0 0 0 0 0 0 0 0 2 0 0 0 0 0 0 0 0 0 2 2 0 0 0 0 0 0 0 0 0 0 0 0 0 0 0 0 0 0 0 0 0 2 0 0 0 0 0 0 0 0 0 0 0 0 0 0 2 0 0 0 2 0 2 0 0 0 0 0 0 0 0 0 0 0 0 0 0 0 0 0 0 2 0 0 0 0 0 0 0 0 0 2 0 0 0 0 0 0 2 0 0 0 0 0 0 0 0 0 2 0 0 0 0 0 0 0 0 0 0 0 0 0 0 0 0 0 0 0 0 0 0 0 0 0 0 0 0 0 0 0 0 0 0 0 0 0 0 0 0 0 0 0 0 0 2 0 0 0 0 0 0 0 0 0 0 0 0 0 0 2 0 0 0 0 2 0 0 0 0 0 0 0 0 0 0 0 0 0 0 0 0 0 0 0 0 0 0 0 0 0 0 0 0 0 0 0 0 0 0 2 0 0 0 0 0 0 0 0 0 0 0 0 0 0 0 0 0 0 0 0 0 0 0 0 0 0 0 0 0 0 0 0 0 0 0 0 0 0 2 0 0 0 0 0 0 0 0 0 0 0 0 0 0 0 0 2 2 0 0 0 0 2 0 0 0 0 0 0 0 0 0 0 0 2 2 0 0 0 0 0 0 0 0 0 0 0 0 0 0 0 0 0 0 0 0 0 0 0 0 0 0 0 0 0 0 0 0 0 0 0 2 2 0 0 0 0 2 0 0 0 0 0 0 0 0 0 0 0 0 0 0 0 0 0 0 0 0 0 0 0 2 2 0 0 0 0 0 0 0 0 0 0 0 0 0 0 0 0 0 0 0 0 0 0 0 0 0 0 0 0 0 0 0 0 0 0 0 0 0 0 0 0 0 0 2 2 0 0 0 0 0 0 0 0 0 0 0 0 0 0 0 0 0 0 0 0 0 0 0 0 0 0 0 0 0 0 0 0 0 0 2 0 0 0 0 0 2 0 0 0 2 0 0 0 0 0 0 0 0 0 0 0 0 0 2 0 0 0 0 0 0 0 0 0 0 0 0 0 0 0 0 0 2 0 0 2 0 0 0 0 0 0 0 0 0 0 0 0 0 0 2 2 0 0 0 0 0 0 0 0 0 0 0 0 0 0 0 0 0 0 0 0 0 0 2 2 0 0 0 0 0 0 0 0 0 0 0 0 0 0 0 0 0 0 0 0 0 0 0 0 0 0 0 0 0 0 0 0 0 0 0 0 0 0 0 0 0 0 0 0 0 0 0 2 2 0 0 0 0 0 0 0 0 0 0 0 0 0 2 2 0 0 0 0 0 2 0 0 0 0 0 0 0 0 0 0 0 0 0 0 0 0 0 0 0 0 0 0 0 

SCALARS geom_link_id int 1
LOOKUP_TABLE default
23 0 0 24 0 0 23 0 0 0 29 0 0 34 63 30 0 0 0 30 0 0 30 0 0 0 0 29 62 27 0 0 0 0 0 0 0 34 23 28 53 57 29 17 0 0 0 0 0 24 29 0 54 0 59 0 0 0 0 0 0 26 0 0 28 34 48 0 45 -1 0 0 47 49 50 0 0 28 0 34 0 0 0 0 0 0 0 46 0 0 0 0 30 41 -1 0 0 27 0 0 55 17 0 0 0 0 0 0 0 0 0 0 0 0 0 0 0 0 0 0 0 0 0 27 27 0 0 17 17 0 0 0 0 0 0 0 0 0 0 0 0 0 0 0 0 0 0 0 0 0 0 0 0 -1 0 0 0 0 0 15 0 0 0 0 0 0 0 0 0 0 15 0 0 -1 0 0 0 0 0 -1 56 61 0 15 -1 0 0 0 0 0 26 0 -1 0 0 0 -1 0 0 0 0 31 0 0 0 0 -1 0 0 0 0 0 -1 0 0 0 -1 21 0 0 0 0 0 -1 19 0 0 0 0 0 0 0 0 0 15 0 0 0 0 0 0 0 0 0 0 0 0 0 0 0 0 0 -1 0 0 0 0 0 0 0 0 28 0 0 0 0 0 0 0 0 0 25 23 0 0 0 0 0 0 -1 0 0 0 0 0 0 0 0 0 0 0 0 0 0 31 0 0 0 0 0 0 0 0 0 0 0 0 0 0 21 0 0 0 43 0 19 0 0 0 0 0 0 0 0 0 0 0 0 0 0 0 0 0 0 26 0 0 0 0 0 0 0 0 0 26 0 0 0 0 0 0 28 0 0 -1 0 -1 0 0 0 -1 25 -1 0 0 0 0 -1 0 -1 0 0 0 -1 0 -1 0 0 0 -1 0 0 0 -1 0 -1 0 -1 0 -1 0 0 0 0 0 -1 0 0 0 -1 0 -1 0 0 0 0 -1 19 -1 0 0 0 0 0 0 0 0 0 -1 0 0 0 17 0 0 0 0 17 0 -1 0 0 0 0 0 -1 0 -1 0 0 0 0 0 0 0 0 0 0 0 0 0 0 0 0 0 0 0 0 0 0 0 0 28 0 0 0 0 0 0 0 0 0 0 0 0 0 0 0 0 0 0 0 0 0 0 0 0 0 0 0 0 -1 0 0 0 0 0 0 -1 0 0 34 0 0 0 0 0 0 -1 0 -1 0 0 0 0 0 0 0 30 30 0 0 0 0 52 0 -1 -1 0 0 0 0 0 0 0 0 23 23 0 0 0 0 0 0 0 0 0 0 0 0 0 0 0 0 0 0 0 0 0 0 0 0 -1 0 0 0 0 0 0 0 -1 0 0 34 34 0 0 0 0 51 0 0 -1 0 -1 0 0 0 0 0 0 0 0 0 0 0 0 0 0 0 0 0 0 25 25 0 0 0 0 0 0 0 0 0 0 0 0 0 0 0 0 0 0 0 0 0 0 0 0 0 0 0 0 0 0 0 0 0 0 0 0 0 0 0 0 0 0 19 19 0 0 0 0 0 0 0 0 0 0 0 0 0 0 0 0 0 0 0 0 0 0 0 0 0 0 0 0 0 0 0 0 0 0 38 0 0 0 0 0 33 0 0 0 60 0 0 0 0 0 0 0 0 0 0 0 0 0 32 0 0 0 0 0 0 0 0 0 0 0 0 0 0 0 0 0 40 0 0 58 0 0 0 -1 -1 -1 -1 -1 -1 -1 -1 -1 -1 -1 15 15 -1 -1 -1 -1 -1 -1 -1 -1 -1 -1 -1 -1 -1 -1 -1 -1 -1 -1 -1 -1 -1 -1 24 24 -1 -1 -1 -1 -1 -1 -1 -1 -1 -1 -1 -1 -1 -1 -1 -1 -1 -1 -1 -1 -1 -1 -1 -1 -1 -1 -1 -1 -1 -1 -1 -1 -1 -1 -1 -1 -1 -1 -1 -1 -1 -1 -1 -1 -1 -1 -1 27 27 -1 -1 -1 -1 -1 -1 -1 -1 -1 -1 -1 -1 -1 29 37 -1 -1 -1 -1 -1 39 -1 -1 -1 -1 -1 -1 -1 -1 -1 -1 -1 -1 -1 -1 -1 -1 -1 -1 -1 -1 -1 -1 -1 

