# vtk DataFile Version 3.0
Generated by GMDS VTK Writer

ASCII
DATASET UNSTRUCTURED_GRID
POINTS 47 float
-5 10 -5
10 10 -5
10 -5 -5
-5 -5 10
-5 10 10
10 10 10
10 -5 10
-5 5 -5
-5 5 10
10 5 10
10 5 -5
-5 -5 -8.88178419700125e-16
10 -5 -8.88178419700125e-16
10 5 0
-5 5 0
10 10 -8.88178419700125e-16
-5 10 -8.88178419700125e-16
-8.88178419700125e-16 -5 -5
0 5 -5
-8.88178419700125e-16 5 0
0 -5 0
0 5 10
-8.88178419700125e-16 -5 10
-8.88178419700125e-16 10 -5
0 10 0
-8.88178419700125e-16 10 10
-5 -4.44089209850063e-16 -5
-5 0 0
0 0 0
0 0 -5
10 0 0
10 -4.44089209850063e-16 -5
-5 -4.44089209850063e-16 10
0 0 10
10 -4.44089209850063e-16 10
-5 10 5
-5 5 5
-4.44089209850063e-16 5 5
0 10 5
10 5 5
10 10 5
-5 -5 5
0 -5 5
-2.22044604925031e-16 0 5
-5 0 5
10 -5 5
10 0 5

CELLS 101 303
2 2 12
2 29 18
2 11 27
2 20 28
2 14 19
2 17 2
2 7 18
2 38 24
2 7 0
2 21 37
2 8 4
2 8 36
2 9 5
2 4 35
2 10 1
2 19 13
2 27 14
2 18 10
2 28 19
2 10 13
2 7 14
2 26 27
2 35 16
2 17 29
2 35 36
2 1 15
2 0 16
2 15 13
2 26 7
2 16 14
2 11 20
2 20 12
2 37 19
2 18 19
2 25 38
2 17 20
2 8 21
2 21 9
2 3 22
2 22 6
2 36 14
2 0 23
2 23 1
2 16 24
2 24 15
2 23 18
2 19 24
2 23 24
2 4 25
2 25 5
2 25 21
2 27 28
2 29 28
2 26 29
2 12 30
2 30 13
2 2 31
2 31 10
2 30 28
2 31 30
2 31 29
2 3 32
2 32 8
2 22 33
2 33 21
2 32 33
2 6 34
2 34 9
2 34 33
2 36 37
2 37 38
2 35 38
2 9 39
2 39 13
2 5 40
2 40 15
2 39 37
2 40 39
2 40 38
2 3 41
2 41 11
2 22 42
2 42 20
2 33 43
2 43 28
2 32 44
2 44 27
2 41 42
2 42 43
2 44 43
2 41 44
2 37 43
2 36 44
2 6 45
2 45 12
2 34 46
2 46 30
2 45 42
2 43 46
2 45 46
2 39 46

CELL_TYPES 101
3 
3 
3 
3 
3 
3 
3 
3 
3 
3 
3 
3 
3 
3 
3 
3 
3 
3 
3 
3 
3 
3 
3 
3 
3 
3 
3 
3 
3 
3 
3 
3 
3 
3 
3 
3 
3 
3 
3 
3 
3 
3 
3 
3 
3 
3 
3 
3 
3 
3 
3 
3 
3 
3 
3 
3 
3 
3 
3 
3 
3 
3 
3 
3 
3 
3 
3 
3 
3 
3 
3 
3 
3 
3 
3 
3 
3 
3 
3 
3 
3 
3 
3 
3 
3 
3 
3 
3 
3 
3 
3 
3 
3 
3 
3 
3 
3 
3 
3 
3 
3 
POINT_DATA 47
SCALARS GMDS_ID int 1
LOOKUP_TABLE default
1 2 3 4 5 6 7 8 9 10 11 12 13 14 15 16 17 18 19 20 21 22 23 24 25 26 27 28 29 30 31 32 33 34 35 36 37 38 39 40 41 42 43 44 45 46 47 
SCALARS geom_link_dim int 1
LOOKUP_TABLE default
0 0 0 0 0 0 0 0 0 0 0 0 0 1 1 0 0 0 1 0 1 1 0 0 1 0 0 1 1 1 1 0 0 1 0 0 1 0 1 1 0 0 1 0 1 0 1 
SCALARS geom_link_id int 1
LOOKUP_TABLE default
-1 -1 -1 -1 -1 -1 -1 -1 -1 -1 -1 -1 -1 21 5 -1 -1 -1 18 0 28 16 -1 -1 4 -1 -1 11 12 19 29 -1 -1 20 -1 -1 6 0 3 22 -1 -1 27 0 13 -1 30 


CELL_DATA 101
SCALARS GMDS_ID int 1
LOOKUP_TABLE default
2 3 5 7 8 9 11 12 13 14 15 16 17 18 19 20 21 22 23 24 26 28 29 30 31 32 34 36 37 38 39 40 41 42 43 44 45 46 47 48 50 52 53 54 55 56 57 58 59 60 61 63 64 65 66 67 68 69 70 71 72 73 74 75 76 79 80 81 83 84 85 86 87 88 89 90 91 92 93 94 95 96 97 98 99 100 101 102 103 104 105 106 107 108 109 110 111 112 113 114 115 

SCALARS geom_link_dim int 1
LOOKUP_TABLE default
0 2 0 2 0 0 0 2 0 0 0 0 0 0 0 0 2 0 0 0 0 0 0 0 0 0 0 0 0 0 0 0 0 0 0 0 0 0 0 0 2 0 0 0 0 0 0 0 0 0 0 2 2 0 0 2 0 0 0 0 0 0 0 0 2 0 0 0 0 0 0 0 0 2 0 0 0 0 0 0 0 0 2 0 0 0 2 0 0 0 0 0 2 0 0 0 2 0 0 0 2 

SCALARS geom_link_id int 1
LOOKUP_TABLE default
0 50 0 52 0 0 0 43 0 0 0 0 0 0 0 0 60 0 0 0 0 0 0 0 0 0 0 0 0 0 0 0 0 0 0 0 0 0 0 0 48 0 0 0 0 0 0 0 0 0 0 27 26 0 0 56 0 0 0 0 0 0 0 0 31 0 0 0 0 0 0 0 0 22 0 0 0 0 0 0 0 0 40 0 0 0 54 0 0 0 0 0 58 0 0 0 57 0 0 0 46 

