# vtk DataFile Version 3.0
Generated by GMDS VTK Writer

ASCII
DATASET UNSTRUCTURED_GRID
POINTS 51 float
5 0 0
5 0 -5
10 10 -5
-5 -5 10
10 -5 10
-5 5 10
10 5 10
10 5 -5
-5 -5 -8.88178419700125e-16
10 5 0
-5 5 0
10 10 -8.88178419700125e-16
-8.88178419700125e-16 -5 -5
0 5 -5
0 5 0
0 -5 0
0 5 10
-8.88178419700125e-16 -5 10
-8.88178419700125e-16 10 -5
0 10 0
-5 0 0
0 0 0
0 0 -5
10 0 0
-5 -4.44089209850063e-16 10
0 0 10
10 -4.44089209850063e-16 10
-5 5 5
0 5 5
0 10 5
10 5 5
10 10 5
-5 -5 5
0 -5 5
-2.22044604925031e-16 0 5
-5 0 5
10 -5 5
10 0 5
5 5 0
5 5 -5
5 -5 -5
5 -5 0
5 5 5
5 10 5
5 10 0
5 5 10
5 10 -5
5 -5 10
5 0 10
5 0 5
5 -5 5

CELLS 108 324
2 13 39
2 14 38
2 22 13
2 40 41
2 8 20
2 38 9
2 15 21
2 10 14
2 0 23
2 29 19
2 21 0
2 16 28
2 5 27
2 7 2
2 20 10
2 21 14
2 7 9
2 38 0
2 12 22
2 2 11
2 0 1
2 22 1
2 39 38
2 11 9
2 8 15
2 28 14
2 13 14
2 12 15
2 5 16
2 3 17
2 12 40
2 27 10
2 15 41
2 18 13
2 14 19
2 18 19
2 39 1
2 20 21
2 22 21
2 23 9
2 3 24
2 24 5
2 17 25
2 25 16
2 41 0
2 24 25
2 4 26
2 26 6
2 39 7
2 27 28
2 28 29
2 6 30
2 30 9
2 31 11
2 31 30
2 3 32
2 32 8
2 17 33
2 33 15
2 25 34
2 34 21
2 24 35
2 35 20
2 32 33
2 33 34
2 35 34
2 32 35
2 28 34
2 27 35
2 4 36
2 26 37
2 37 23
2 36 37
2 30 37
2 40 1
2 28 42
2 42 30
2 29 43
2 43 31
2 19 44
2 44 11
2 42 43
2 44 43
2 38 44
2 38 42
2 16 45
2 45 6
2 45 42
2 18 46
2 46 2
2 39 46
2 46 44
2 17 47
2 47 4
2 25 48
2 48 26
2 34 49
2 49 37
2 33 50
2 50 36
2 47 48
2 48 49
2 50 49
2 47 50
2 0 49
2 41 50
2 45 48
2 42 49

CELL_TYPES 108
3 
3 
3 
3 
3 
3 
3 
3 
3 
3 
3 
3 
3 
3 
3 
3 
3 
3 
3 
3 
3 
3 
3 
3 
3 
3 
3 
3 
3 
3 
3 
3 
3 
3 
3 
3 
3 
3 
3 
3 
3 
3 
3 
3 
3 
3 
3 
3 
3 
3 
3 
3 
3 
3 
3 
3 
3 
3 
3 
3 
3 
3 
3 
3 
3 
3 
3 
3 
3 
3 
3 
3 
3 
3 
3 
3 
3 
3 
3 
3 
3 
3 
3 
3 
3 
3 
3 
3 
3 
3 
3 
3 
3 
3 
3 
3 
3 
3 
3 
3 
3 
3 
3 
3 
3 
3 
3 
3 
POINT_DATA 51
SCALARS GMDS_ID int 1
LOOKUP_TABLE default
0 1 2 4 7 9 10 11 12 14 15 16 18 19 20 21 22 23 24 25 28 29 30 31 33 34 35 37 38 39 40 41 42 43 44 45 46 47 48 49 50 51 52 53 54 55 57 58 59 60 61 
SCALARS geom_link_dim int 1
LOOKUP_TABLE default
1 1 0 0 0 0 0 0 0 1 1 0 0 1 1 1 1 0 0 1 1 1 1 1 0 1 0 1 1 1 1 0 0 1 0 1 0 1 1 1 0 1 1 1 1 1 0 0 1 1 1 
SCALARS geom_link_id int 1
LOOKUP_TABLE default
26 25 -1 -1 -1 -1 -1 -1 -1 21 5 -1 -1 18 1 28 16 -1 -1 4 11 12 19 29 -1 20 -1 6 2 3 22 -1 -1 27 0 13 -1 30 10 17 -1 31 8 7 9 15 -1 -1 24 23 32 


CELL_DATA 108
SCALARS GMDS_ID int 1
LOOKUP_TABLE default
0 1 3 4 5 6 7 8 10 12 13 14 16 19 21 23 24 25 30 32 33 34 35 36 39 41 42 44 45 47 49 50 51 56 57 58 62 63 64 67 73 74 75 76 77 79 80 81 82 84 85 87 88 90 92 94 95 96 97 98 99 100 101 102 103 104 105 106 107 108 110 111 114 115 116 117 118 119 120 121 122 123 124 125 126 127 128 133 134 135 136 137 138 139 140 141 142 143 144 145 146 147 148 149 150 151 152 153 

SCALARS geom_link_dim int 1
LOOKUP_TABLE default
2 0 2 0 0 2 2 2 2 2 0 2 0 0 2 2 0 2 0 0 2 2 2 0 0 2 2 0 0 0 0 2 2 0 2 0 2 2 2 2 0 0 0 2 2 0 0 0 0 2 2 0 2 0 0 0 0 0 2 0 0 0 2 0 0 0 0 0 2 0 0 2 0 2 0 2 2 2 0 2 0 2 2 0 0 2 0 2 0 0 0 0 0 0 2 0 0 2 2 0 0 0 2 0 2 2 2 0 

SCALARS geom_link_id int 1
LOOKUP_TABLE default
41 0 50 0 0 39 52 15 14 43 0 44 0 0 60 2 0 6 0 0 13 47 24 0 0 9 18 0 0 0 0 48 55 0 51 0 53 27 26 56 0 0 0 31 16 0 0 0 0 23 42 0 22 0 0 0 0 0 40 0 0 0 54 0 0 0 0 0 58 0 0 57 0 46 0 5 38 30 0 21 0 29 32 0 0 37 0 35 0 0 0 0 0 0 49 0 0 20 17 0 0 0 34 0 7 59 36 0 

