# vtk DataFile Version 3.0
Generated by GMDS VTK Writer

ASCII
DATASET UNSTRUCTURED_GRID
POINTS 51 float
5 0 0
5 0 -5
10 10 -5
-5 -5 10
10 -5 10
-5 5 10
10 5 10
10 5 -5
-5 -5 -8.88178419700125e-16
10 5 0
-5 5 0
10 10 -8.88178419700125e-16
-8.88178419700125e-16 -5 -5
0 5 -5
0 5 0
0 -5 0
0 5 10
-8.88178419700125e-16 -5 10
-8.88178419700125e-16 10 -5
0 10 0
-5 0 0
0 0 0
0 0 -5
10 0 0
-5 -4.44089209850063e-16 10
0 0 10
10 -4.44089209850063e-16 10
-5 5 5
0 5 5
0 10 5
10 5 5
10 10 5
-5 -5 5
0 -5 5
-2.22044604925031e-16 0 5
-5 0 5
10 -5 5
10 0 5
5 5 0
5 5 -5
5 -5 -5
5 -5 0
5 5 5
5 10 5
5 10 0
5 5 10
5 10 -5
5 -5 10
5 0 10
5 0 5
5 -5 5

CELLS 75 375
4 39 38 9 7 
4 38 0 23 9 
4 22 21 14 13 
4 12 15 21 22 
4 28 29 19 14 
4 20 21 14 10 
4 2 7 9 11 
4 14 28 42 38 
4 8 15 21 20 
4 14 21 0 38 
4 38 44 11 9 
4 13 14 38 39 
4 27 28 14 10 
4 14 19 44 38 
4 44 43 31 11 
4 5 16 28 27 
4 19 29 43 44 
4 42 43 31 30 
4 21 22 1 0 
4 18 13 14 19 
4 28 29 43 42 
4 40 41 0 1 
4 12 22 1 40 
4 15 21 0 41 
4 3 17 25 24 
4 24 25 16 5 
4 12 15 41 40 
4 1 0 38 39 
4 13 22 1 39 
4 31 30 9 11 
4 3 17 33 32 
4 32 33 15 8 
4 17 25 34 33 
4 33 34 21 15 
4 24 25 34 35 
4 35 34 21 20 
4 3 24 35 32 
4 32 35 20 8 
4 32 33 34 35 
4 16 25 34 28 
4 28 34 21 14 
4 5 24 35 27 
4 27 35 20 10 
4 35 34 28 27 
4 4 26 37 36 
4 6 26 37 30 
4 30 37 23 9 
4 38 42 30 9 
4 42 43 44 38 
4 16 28 42 45 
4 45 42 30 6 
4 13 18 46 39 
4 39 46 2 7 
4 18 19 44 46 
4 46 44 11 2 
4 46 39 38 44 
4 17 25 48 47 
4 47 48 26 4 
4 25 34 49 48 
4 48 49 37 26 
4 33 34 49 50 
4 50 49 37 36 
4 17 33 50 47 
4 47 50 36 4 
4 47 48 49 50 
4 21 34 49 0 
4 0 49 37 23 
4 15 33 50 41 
4 50 49 0 41 
4 16 25 48 45 
4 45 48 26 6 
4 28 34 49 42 
4 42 49 37 30 
4 45 48 49 42 
4 42 49 0 38 

CELL_TYPES 75
9 
9 
9 
9 
9 
9 
9 
9 
9 
9 
9 
9 
9 
9 
9 
9 
9 
9 
9 
9 
9 
9 
9 
9 
9 
9 
9 
9 
9 
9 
9 
9 
9 
9 
9 
9 
9 
9 
9 
9 
9 
9 
9 
9 
9 
9 
9 
9 
9 
9 
9 
9 
9 
9 
9 
9 
9 
9 
9 
9 
9 
9 
9 
9 
9 
9 
9 
9 
9 
9 
9 
9 
9 
9 
9 
POINT_DATA 51
SCALARS GMDS_ID int 1
LOOKUP_TABLE default
0 1 2 4 7 9 10 11 12 14 15 16 18 19 20 21 22 23 24 25 28 29 30 31 33 34 35 37 38 39 40 41 42 43 44 45 46 47 48 49 50 51 52 53 54 55 57 58 59 60 61 
SCALARS geom_link_dim int 1
LOOKUP_TABLE default
1 1 0 0 0 0 0 0 0 1 1 0 0 1 1 1 1 0 0 1 1 1 1 1 0 1 0 1 1 1 1 0 0 1 0 1 0 1 1 1 0 1 1 1 1 1 0 0 1 1 1 
SCALARS geom_link_id int 1
LOOKUP_TABLE default
26 25 -1 -1 -1 -1 -1 -1 -1 21 5 -1 -1 18 1 28 16 -1 -1 4 11 12 19 29 -1 20 -1 6 2 3 22 -1 -1 27 0 13 -1 30 10 17 -1 31 8 7 9 15 -1 -1 24 23 32 


CELL_DATA 75
SCALARS GMDS_ID int 1
LOOKUP_TABLE default
2 13 15 16 17 19 20 21 22 24 25 26 28 29 30 31 33 34 40 42 45 46 52 54 56 57 58 59 63 64 68 69 70 71 72 73 74 75 76 77 78 79 80 81 86 89 90 92 93 98 99 101 102 103 104 105 106 107 108 109 110 111 112 113 114 115 116 117 119 120 121 122 123 124 125 

SCALARS geom_link_dim int 1
LOOKUP_TABLE default
0 0 0 0 0 0 0 0 0 0 0 0 0 0 0 0 0 0 0 0 0 0 0 0 0 0 0 0 0 0 0 0 0 0 0 0 0 0 0 0 0 0 0 0 0 0 0 0 0 0 0 0 0 0 0 0 0 0 0 0 0 0 0 0 0 0 0 0 0 0 0 0 0 0 0 

SCALARS geom_link_id int 1
LOOKUP_TABLE default
0 0 0 0 0 0 0 0 0 0 0 0 0 0 0 0 0 0 0 0 0 0 0 0 0 0 0 0 0 0 0 0 0 0 0 0 0 0 0 0 0 0 0 0 0 0 0 0 0 0 0 0 0 0 0 0 0 0 0 0 0 0 0 0 0 0 0 0 0 0 0 0 0 0 0 

