# vtk DataFile Version 3.0
Generated by GMDS VTK Writer

ASCII
DATASET UNSTRUCTURED_GRID
POINTS 216 float
0 0 0
0 10 0
10 10 0
10 0 0
0 0 10
0 10 10
10 10 10
10 0 10
0 4 0
0 4 10
10 4 10
10 4 0
1 0 0
1 0 10
1 4 10
1 4 0
1 10 10
1 10 0
4 0 0
4 0 10
4 4 10
4 4 0
4 10 10
4 10 0
1 0 6
1 4 6
0 4 6
0 0 6
4 0 6
4 4 6
10 0 6
10 4 6
1 10 6
0 10 6
10 10 6
4 10 6
0 1 10
1 1 10
1 1 6
0 1 6
1 1 0
0 1 0
4 1 10
4 1 6
4 1 0
10 1 10
10 1 6
10 1 0
0 1 4
1 1 4
1 4 4
0 4 4
0 0 4
1 0 4
1 10 4
0 10 4
10 10 4
10 4 4
4 4 4
4 10 4
4 0 4
4 1 4
10 0 4
10 1 4
6 10 10
6 4 10
6 4 6
6 10 6
6 0 10
6 0 6
6 1 6
6 1 10
6 10 0
6 4 0
6 4 4
6 10 4
6 0 0
6 1 0
6 1 4
6 0 4
0 8 10
1 8 10
1 8 6
0 8 6
0 8 4
1 8 4
0 8 0
1 8 0
4 8 10
4 8 6
6 8 10
6 8 6
10 8 10
10 8 6
4 8 0
4 8 4
10 8 0
10 8 4
6 8 4
6 8 0
0 1 1
1 1 1
1 4 1
0 4 1
0 0 1
1 0 1
4 0 1
4 1 1
4 4 1
0 8 1
1 8 1
1 10 1
0 10 1
10 0 1
10 1 1
6 1 1
6 0 1
10 4 1
6 4 1
4 8 1
4 10 1
6 8 1
10 8 1
6 10 1
10 10 1
1 0 8
4 0 8
4 1 8
1 1 8
6 4 8
6 1 8
4 4 8
10 4 8
10 1 8
1 4 8
4 8 8
1 8 8
0 1 8
0 4 8
0 0 8
6 0 8
10 0 8
0 8 8
1 10 8
0 10 8
4 10 8
6 8 8
6 10 8
10 8 8
10 10 8
0 6 8
1 6 8
1 6 6
0 6 6
0 6 10
1 6 10
1 6 1
4 6 1
4 6 4
1 6 4
1 6 0
4 6 0
0 6 4
4 6 8
4 6 6
4 6 10
0 6 1
10 6 8
6 6 8
6 6 6
10 6 6
10 6 10
6 6 10
0 6 0
10 6 4
6 6 4
10 6 0
6 6 0
6 6 1
10 6 1
8 0 4
8 1 4
8 1 6
8 0 6
8 4 8
8 1 8
8 4 6
8 4 4
8 4 10
8 1 10
8 8 6
8 8 4
8 10 4
8 10 6
8 0 0
8 1 0
8 1 1
8 0 1
8 4 0
8 4 1
8 10 0
8 8 0
8 8 1
8 10 1
8 0 10
8 0 8
8 10 10
8 8 10
8 8 8
8 10 8
8 6 8
8 6 6
8 6 10
8 6 4
8 6 1
8 6 0

CELLS 450 2250
4 17 87 110 111 
4 131 134 151 163 
4 52 53 49 48 
4 13 19 42 37 
4 109 110 85 84 
4 52 48 39 27 
4 162 159 152 153 
4 65 71 42 20 
4 41 40 15 8 
4 138 134 25 26 
4 0 12 40 41 
4 53 49 38 24 
4 66 70 43 29 
4 153 162 84 83 
4 9 14 134 138 
4 26 51 162 153 
4 52 53 24 27 
4 152 159 85 82 
4 25 50 159 152 
4 86 87 110 109 
4 134 128 38 25 
4 38 39 26 25 
4 48 49 50 51 
4 101 107 108 102 
4 24 27 39 38 
4 51 48 39 26 
4 159 162 84 85 
4 63 114 196 181 
4 102 108 58 50 
4 50 51 162 159 
4 36 37 14 9 
4 14 37 128 134 
4 15 21 108 102 
4 4 13 37 36 
4 160 161 157 156 
4 137 128 38 39 
4 51 50 25 26 
4 36 37 128 137 
4 160 156 110 87 
4 68 71 42 19 
4 15 102 156 160 
4 50 49 38 25 
4 194 195 196 197 
4 49 48 39 38 
4 194 197 116 76 
4 161 157 119 94 
4 3 113 197 194 
4 21 108 157 161 
4 136 135 89 82 
4 108 107 61 58 
4 69 70 43 28 
4 21 44 107 108 
4 160 161 94 87 
4 15 21 161 160 
4 105 106 107 101 
4 101 107 61 49 
4 156 157 158 159 
4 40 44 107 101 
4 106 107 61 60 
4 81 88 135 136 
4 159 156 110 85 
4 197 196 115 116 
4 50 102 156 159 
4 159 158 95 85 
4 18 44 107 106 
4 37 42 20 14 
4 50 58 158 159 
4 158 157 119 95 
4 24 28 43 38 
4 38 43 29 25 
4 58 108 157 158 
4 105 106 60 53 
4 12 18 106 105 
4 12 18 44 40 
4 40 44 21 15 
4 156 157 119 110 
4 86 87 17 1 
4 113 114 196 197 
4 84 85 82 83 
4 83 84 55 33 
4 102 108 157 156 
4 154 155 151 150 
4 195 196 115 77 
4 82 85 54 32 
4 47 114 196 195 
4 154 150 142 80 
4 104 105 101 100 
4 104 100 48 52 
4 0 41 100 104 
4 105 101 49 53 
4 12 40 101 105 
4 194 195 77 76 
4 55 54 32 33 
4 104 105 53 52 
4 0 12 105 104 
4 100 101 102 103 
4 85 84 55 54 
4 3 47 195 194 
4 103 100 48 51 
4 8 41 100 103 
4 9 138 150 154 
4 155 151 136 81 
4 14 134 151 155 
4 134 131 29 25 
4 50 58 29 25 
4 14 20 131 134 
4 54 59 35 32 
4 103 102 50 51 
4 53 60 28 24 
4 60 61 43 28 
4 49 61 43 38 
4 53 60 61 49 
4 58 61 43 29 
4 49 61 58 50 
4 82 83 33 32 
4 190 191 192 193 
4 154 155 81 80 
4 9 14 155 154 
4 62 63 46 30 
4 80 81 16 5 
4 132 133 46 31 
4 57 63 46 31 
4 193 190 91 67 
4 8 15 102 103 
4 10 45 133 132 
4 129 130 127 131 
4 102 101 49 50 
4 15 40 101 102 
4 131 129 66 29 
4 20 65 129 131 
4 101 100 48 49 
4 66 74 58 29 
4 67 75 59 35 
4 40 41 100 101 
4 76 77 44 18 
4 131 127 43 29 
4 20 42 127 131 
4 79 78 61 60 
4 127 130 70 43 
4 42 71 130 127 
4 129 130 70 66 
4 70 78 61 43 
4 69 79 60 28 
4 79 78 70 69 
4 73 77 44 21 
4 74 78 61 58 
4 65 71 130 129 
4 74 78 70 66 
4 81 88 22 16 
4 150 151 152 153 
4 153 150 142 83 
4 34 93 190 193 
4 82 89 35 32 
4 26 138 150 153 
4 152 153 83 82 
4 25 26 153 152 
4 193 192 75 67 
4 89 91 67 35 
4 34 56 192 193 
4 88 90 64 22 
4 152 151 136 82 
4 25 134 151 152 
4 151 150 142 136 
4 192 191 98 75 
4 56 97 191 192 
4 134 138 150 151 
4 190 191 98 91 
4 87 94 23 17 
4 125 126 127 128 
4 125 128 38 24 
4 93 97 191 190 
4 85 95 59 54 
4 13 37 128 125 
4 188 189 185 184 
4 89 95 59 35 
4 85 95 89 82 
4 128 127 43 38 
4 37 42 127 128 
4 188 184 129 65 
4 126 127 43 28 
4 19 42 127 126 
4 10 132 184 188 
4 125 126 28 24 
4 189 185 130 71 
4 95 98 75 59 
4 45 133 185 189 
4 94 99 72 23 
4 13 19 126 125 
4 188 189 71 65 
4 93 97 56 34 
4 10 45 189 188 
4 91 98 75 67 
4 91 98 95 89 
4 111 110 85 54 
4 1 17 111 112 
4 112 111 54 55 
4 1 86 109 112 
4 112 109 84 55 
4 109 110 111 112 
4 187 181 182 186 
4 186 187 74 66 
4 31 57 187 186 
4 187 181 78 74 
4 57 63 181 187 
4 3 47 114 113 
4 113 114 63 62 
4 76 77 115 116 
4 116 115 78 79 
4 44 77 115 107 
4 107 115 78 61 
4 18 76 116 106 
4 106 116 79 60 
4 116 115 107 106 
4 11 47 114 117 
4 117 114 63 57 
4 73 77 115 118 
4 118 115 78 74 
4 21 73 118 108 
4 108 118 74 58 
4 118 115 107 108 
4 184 185 182 186 
4 186 184 129 66 
4 87 94 119 110 
4 110 119 95 85 
4 31 132 184 186 
4 23 94 119 120 
4 120 119 95 59 
4 17 23 120 111 
4 111 120 59 54 
4 110 119 120 111 
4 186 182 70 66 
4 31 46 182 186 
4 182 185 130 70 
4 46 133 185 182 
4 184 185 130 129 
4 72 99 121 123 
4 123 121 98 75 
4 2 96 122 124 
4 124 122 97 56 
4 94 99 121 119 
4 119 121 98 95 
4 132 133 185 184 
4 23 72 123 120 
4 120 123 75 59 
4 119 121 123 120 
4 9 36 137 138 
4 138 137 39 26 
4 137 128 134 138 
4 4 13 125 139 
4 139 125 24 27 
4 4 36 137 139 
4 139 137 39 27 
4 139 125 128 137 
4 68 71 130 140 
4 140 130 70 69 
4 19 68 140 126 
4 126 140 69 28 
4 140 130 127 126 
4 7 45 133 141 
4 141 133 46 30 
4 128 127 131 134 
4 80 81 136 142 
4 142 136 82 83 
4 16 81 136 143 
4 143 136 82 32 
4 5 16 143 144 
4 144 143 32 33 
4 5 80 142 144 
4 144 142 83 33 
4 142 136 143 144 
4 180 181 182 183 
4 183 180 79 69 
4 30 62 180 183 
4 22 88 135 145 
4 145 135 89 35 
4 16 22 145 143 
4 143 145 35 32 
4 136 135 145 143 
4 183 182 70 69 
4 30 46 182 183 
4 88 90 146 135 
4 135 146 91 89 
4 182 181 78 70 
4 64 90 146 147 
4 147 146 91 67 
4 22 64 147 145 
4 145 147 67 35 
4 135 146 147 145 
4 46 63 181 182 
4 180 181 78 79 
4 62 63 181 180 
4 6 92 148 149 
4 149 148 93 34 
4 163 151 136 135 
4 29 131 163 164 
4 164 163 135 89 
4 25 29 164 152 
4 152 164 89 82 
4 151 163 164 152 
4 29 58 158 164 
4 164 158 95 89 
4 159 158 164 152 
4 14 20 165 155 
4 155 165 88 81 
4 20 131 163 165 
4 165 163 135 88 
4 155 165 163 151 
4 102 103 166 156 
4 156 166 109 110 
4 51 103 166 162 
4 162 166 109 84 
4 166 156 159 162 
4 66 129 168 169 
4 169 168 146 91 
4 31 132 167 170 
4 170 167 148 93 
4 65 129 168 172 
4 172 168 146 90 
4 10 132 167 171 
4 171 167 148 92 
4 8 15 160 173 
4 173 160 87 86 
4 8 103 166 173 
4 173 166 109 86 
4 173 160 156 166 
4 129 131 163 168 
4 168 163 135 146 
4 29 66 169 164 
4 164 169 91 89 
4 163 168 169 164 
4 20 65 172 165 
4 165 172 90 88 
4 165 172 168 163 
4 31 57 174 170 
4 170 174 97 93 
4 66 74 175 169 
4 169 175 98 91 
4 58 74 175 158 
4 158 175 98 95 
4 169 175 158 164 
4 73 118 178 177 
4 177 178 121 99 
4 11 117 179 176 
4 176 179 122 96 
4 74 118 178 175 
4 175 178 121 98 
4 57 117 179 174 
4 174 179 122 97 
4 21 73 177 161 
4 161 177 99 94 
4 108 118 178 157 
4 157 178 121 119 
4 161 177 178 157 
4 157 178 175 158 
4 181 196 115 78 
4 62 113 197 180 
4 180 197 116 79 
4 197 196 181 180 
4 11 47 195 198 
4 198 195 77 73 
4 114 117 199 196 
4 196 199 118 115 
4 11 117 199 198 
4 198 199 118 73 
4 198 195 196 199 
4 57 117 199 187 
4 187 199 118 74 
4 199 196 181 187 
4 2 96 201 200 
4 200 201 99 72 
4 96 122 202 201 
4 201 202 121 99 
4 122 124 203 202 
4 202 203 123 121 
4 2 124 203 200 
4 200 203 123 72 
4 200 201 202 203 
4 97 122 202 191 
4 191 202 121 98 
4 56 124 203 192 
4 192 203 123 75 
4 203 202 191 192 
4 7 45 189 204 
4 204 189 71 68 
4 133 141 205 185 
4 185 205 140 130 
4 7 141 205 204 
4 204 205 140 68 
4 204 189 185 205 
4 30 141 205 183 
4 183 205 140 69 
4 205 185 182 183 
4 6 92 207 206 
4 206 207 90 64 
4 92 148 208 207 
4 207 208 146 90 
4 148 149 209 208 
4 208 209 147 146 
4 6 149 209 206 
4 206 209 147 64 
4 206 207 208 209 
4 93 148 208 190 
4 190 208 146 91 
4 34 149 209 193 
4 193 209 147 67 
4 209 208 190 193 
4 132 167 210 184 
4 184 210 168 129 
4 167 170 211 210 
4 210 211 169 168 
4 31 170 211 186 
4 186 211 169 66 
4 186 184 210 211 
4 148 167 210 208 
4 208 210 168 146 
4 93 170 211 190 
4 190 211 169 91 
4 211 210 208 190 
4 167 171 212 210 
4 210 212 172 168 
4 10 171 212 188 
4 188 212 172 65 
4 188 184 210 212 
4 92 171 212 207 
4 207 212 172 90 
4 212 210 208 207 
4 57 174 213 187 
4 187 213 175 74 
4 170 174 213 211 
4 211 213 175 169 
4 186 187 213 211 
4 97 174 213 191 
4 191 213 175 98 
4 211 213 191 190 
4 117 179 214 199 
4 199 214 178 118 
4 176 179 214 215 
4 215 214 178 177 
4 11 176 215 198 
4 198 215 177 73 
4 198 199 214 215 
4 122 179 214 202 
4 202 214 178 121 
4 96 176 215 201 
4 201 215 177 99 
4 215 214 202 201 
4 174 179 214 213 
4 213 214 178 175 
4 187 199 214 213 
4 213 214 202 191 

CELL_TYPES 450
9 
9 
9 
9 
9 
9 
9 
9 
9 
9 
9 
9 
9 
9 
9 
9 
9 
9 
9 
9 
9 
9 
9 
9 
9 
9 
9 
9 
9 
9 
9 
9 
9 
9 
9 
9 
9 
9 
9 
9 
9 
9 
9 
9 
9 
9 
9 
9 
9 
9 
9 
9 
9 
9 
9 
9 
9 
9 
9 
9 
9 
9 
9 
9 
9 
9 
9 
9 
9 
9 
9 
9 
9 
9 
9 
9 
9 
9 
9 
9 
9 
9 
9 
9 
9 
9 
9 
9 
9 
9 
9 
9 
9 
9 
9 
9 
9 
9 
9 
9 
9 
9 
9 
9 
9 
9 
9 
9 
9 
9 
9 
9 
9 
9 
9 
9 
9 
9 
9 
9 
9 
9 
9 
9 
9 
9 
9 
9 
9 
9 
9 
9 
9 
9 
9 
9 
9 
9 
9 
9 
9 
9 
9 
9 
9 
9 
9 
9 
9 
9 
9 
9 
9 
9 
9 
9 
9 
9 
9 
9 
9 
9 
9 
9 
9 
9 
9 
9 
9 
9 
9 
9 
9 
9 
9 
9 
9 
9 
9 
9 
9 
9 
9 
9 
9 
9 
9 
9 
9 
9 
9 
9 
9 
9 
9 
9 
9 
9 
9 
9 
9 
9 
9 
9 
9 
9 
9 
9 
9 
9 
9 
9 
9 
9 
9 
9 
9 
9 
9 
9 
9 
9 
9 
9 
9 
9 
9 
9 
9 
9 
9 
9 
9 
9 
9 
9 
9 
9 
9 
9 
9 
9 
9 
9 
9 
9 
9 
9 
9 
9 
9 
9 
9 
9 
9 
9 
9 
9 
9 
9 
9 
9 
9 
9 
9 
9 
9 
9 
9 
9 
9 
9 
9 
9 
9 
9 
9 
9 
9 
9 
9 
9 
9 
9 
9 
9 
9 
9 
9 
9 
9 
9 
9 
9 
9 
9 
9 
9 
9 
9 
9 
9 
9 
9 
9 
9 
9 
9 
9 
9 
9 
9 
9 
9 
9 
9 
9 
9 
9 
9 
9 
9 
9 
9 
9 
9 
9 
9 
9 
9 
9 
9 
9 
9 
9 
9 
9 
9 
9 
9 
9 
9 
9 
9 
9 
9 
9 
9 
9 
9 
9 
9 
9 
9 
9 
9 
9 
9 
9 
9 
9 
9 
9 
9 
9 
9 
9 
9 
9 
9 
9 
9 
9 
9 
9 
9 
9 
9 
9 
9 
9 
9 
9 
9 
9 
9 
9 
9 
9 
9 
9 
9 
9 
9 
9 
9 
9 
9 
9 
9 
9 
9 
9 
9 
9 
9 
9 
9 
9 
9 
9 
9 
9 
9 
9 
9 
9 
9 
9 
9 
9 
9 
9 
9 
9 
9 
9 
9 
9 
9 
9 
9 
9 
9 
9 
9 
9 
9 
9 
9 
9 
9 
9 
9 
9 
9 
9 
9 
9 
9 
POINT_DATA 216
SCALARS GMDS_ID int 1
LOOKUP_TABLE default
0 1 2 3 4 5 6 7 8 9 10 11 12 13 14 15 16 17 18 19 20 21 22 23 24 25 26 27 28 29 30 31 32 33 34 35 36 37 38 39 40 41 42 43 44 45 46 47 48 49 50 51 52 53 54 55 56 57 58 59 60 61 62 63 64 65 66 67 68 69 70 71 72 73 74 75 76 77 78 79 80 81 82 83 84 85 86 87 88 89 90 91 92 93 94 95 96 97 98 99 100 101 102 103 104 105 106 107 108 109 110 111 112 113 114 115 116 117 118 119 120 121 122 123 124 125 126 127 128 129 130 131 132 133 134 135 136 137 138 139 140 141 142 143 144 145 146 147 148 149 150 151 152 153 154 155 156 157 158 159 160 161 162 163 164 165 166 167 168 169 170 171 172 173 174 175 176 177 178 179 180 181 182 183 184 185 186 187 188 189 190 191 192 193 194 195 196 197 198 199 200 201 202 203 204 205 206 207 208 209 210 211 212 213 214 215 
SCALARS geom_link_dim int 1
LOOKUP_TABLE default
1 1 1 1 1 1 1 1 2 2 2 2 2 2 3 3 2 2 2 2 3 3 2 2 3 4 3 2 3 4 2 3 3 2 2 3 2 3 4 3 3 2 3 4 3 2 3 2 3 1 1 3 2 3 3 2 2 3 1 3 3 1 2 3 2 3 4 3 2 3 4 3 2 3 4 3 2 3 4 3 2 3 4 3 3 4 2 3 3 4 3 1 2 3 3 4 2 3 4 3 3 1 1 3 2 3 3 1 1 3 4 3 2 2 3 4 3 3 4 4 3 4 3 3 2 3 3 4 4 4 4 4 3 3 4 4 4 3 3 2 3 2 3 3 2 3 1 3 3 2 3 4 4 3 2 3 4 4 4 4 3 3 3 4 4 3 3 3 1 1 3 2 3 2 3 4 2 3 4 3 3 4 4 3 4 4 4 4 3 3 1 4 3 3 2 3 4 3 3 4 2 3 4 3 2 3 2 3 1 3 1 1 3 4 4 3 
SCALARS geom_link_id int 1
LOOKUP_TABLE default
10 12 16 13 9 11 15 14 19 29 26 31 20 28 18 11 25 30 20 28 18 11 25 30 12 1 10 21 12 1 33 13 17 32 27 17 29 18 1 10 11 19 18 1 11 26 13 31 10 17 19 10 21 12 17 32 27 13 23 17 12 22 33 13 25 18 1 17 28 12 1 18 30 11 1 17 20 11 1 12 29 18 1 10 10 1 19 11 18 1 18 4 26 13 11 1 31 13 1 11 10 18 20 10 21 12 12 21 24 10 1 17 32 33 13 1 12 13 1 1 17 1 13 17 27 12 12 1 1 1 1 1 13 13 1 1 1 10 10 21 12 33 10 17 32 17 3 17 13 27 10 1 1 10 29 18 1 1 1 1 11 11 10 1 1 18 10 13 1 2 13 26 18 19 13 1 31 11 1 13 12 1 1 12 1 1 1 1 18 18 8 1 17 17 20 11 1 12 11 1 30 11 1 17 28 12 25 18 7 17 5 6 18 1 1 11 


CELL_DATA 450
SCALARS GMDS_ID int 1
LOOKUP_TABLE default
0 1 2 3 4 5 6 7 8 9 10 12 13 14 15 16 18 19 20 21 22 23 24 25 26 27 28 29 30 31 32 33 34 35 36 37 38 39 40 41 42 44 45 46 47 48 49 50 51 52 53 54 56 57 58 59 60 61 62 63 64 65 66 67 68 69 70 71 72 73 74 75 76 77 78 79 80 81 82 83 84 85 86 87 88 89 90 91 92 93 94 95 96 97 98 99 100 101 102 103 104 105 106 107 108 109 110 111 113 115 117 118 120 121 122 123 124 125 127 128 129 130 131 132 133 134 135 136 137 138 139 141 143 144 146 147 148 150 151 152 153 155 157 158 160 162 163 164 165 166 167 168 169 170 171 172 173 174 175 176 177 178 179 180 182 184 185 186 187 188 189 190 191 192 193 194 195 196 197 199 200 201 203 204 205 206 207 208 209 210 211 212 214 215 216 217 218 219 220 221 222 223 224 225 226 227 230 231 235 236 237 238 239 240 241 242 243 247 248 249 250 251 252 253 254 255 256 257 258 259 260 261 264 265 266 267 268 271 272 274 275 276 277 278 279 280 281 282 283 284 285 286 287 288 289 290 291 292 293 294 298 299 300 301 302 303 304 305 306 307 308 309 310 311 312 313 314 315 316 317 318 319 320 321 322 323 324 325 328 329 330 333 334 336 337 338 339 340 341 342 343 344 345 346 347 348 349 350 351 352 353 354 357 358 361 362 366 367 368 369 371 372 373 374 375 376 377 378 379 380 381 382 383 384 385 388 389 391 392 393 396 397 400 401 403 404 405 406 408 409 410 411 412 413 414 415 416 417 418 419 420 421 422 423 424 425 426 427 428 429 430 431 432 433 434 435 436 437 438 439 440 441 442 443 444 445 446 447 448 449 450 451 452 453 454 455 456 457 458 459 460 461 462 463 464 465 466 467 468 469 470 471 472 473 474 475 476 477 478 479 480 481 482 483 484 485 486 487 488 489 490 491 492 493 494 495 496 497 498 499 500 501 502 503 504 505 506 507 508 509 

SCALARS geom_link_dim int 1
LOOKUP_TABLE default
4 4 4 3 4 3 4 3 3 4 3 4 4 3 4 3 3 4 4 4 4 4 4 3 4 3 4 4 3 4 3 4 4 3 4 4 4 4 4 3 4 4 4 4 3 4 3 4 4 3 4 4 3 3 4 3 4 4 4 4 4 4 4 4 4 3 4 4 4 4 4 3 3 3 3 4 3 4 4 3 4 4 4 4 4 3 4 3 3 4 4 3 3 3 3 4 4 3 3 3 3 4 4 4 4 4 3 4 3 4 4 4 4 3 4 4 3 3 3 3 3 3 4 4 3 4 3 4 4 4 4 4 3 4 3 4 4 4 4 4 4 4 3 4 3 4 4 4 3 4 3 4 4 3 4 4 3 4 3 3 4 4 4 4 4 4 4 3 4 4 4 4 4 4 4 4 4 4 4 4 4 4 3 4 4 4 3 3 3 3 3 4 4 4 3 3 3 3 4 4 4 4 4 4 3 3 4 4 4 4 3 3 4 3 3 4 4 4 4 4 4 4 4 4 4 4 4 3 3 4 4 4 4 4 4 4 4 3 3 4 4 4 3 3 4 3 3 4 3 3 3 3 4 4 4 3 3 4 3 3 4 4 4 4 4 3 3 3 3 4 4 3 3 4 4 3 3 4 4 4 4 4 4 4 4 3 3 4 4 4 4 3 3 4 4 4 4 4 4 4 4 4 3 3 4 4 4 4 4 3 3 4 4 3 3 3 4 4 3 3 3 3 3 3 4 4 4 4 4 4 3 3 4 3 3 4 4 4 4 4 4 4 3 3 4 4 3 3 3 3 4 4 4 4 4 3 3 4 3 3 4 4 4 4 4 4 4 4 3 3 4 4 4 4 3 3 4 4 4 3 3 4 3 3 4 4 3 3 4 3 3 4 3 3 4 4 4 4 3 3 4 4 3 3 3 4 4 4 4 3 4 4 4 4 3 4 3 3 4 4 3 3 4 3 3 4 4 4 4 4 4 4 4 4 4 4 4 4 3 3 4 4 4 3 3 4 4 4 4 4 

SCALARS geom_link_id int 1
LOOKUP_TABLE default
1 1 1 18 1 10 1 18 11 1 11 1 1 10 1 10 12 1 1 1 1 1 1 15 1 10 1 1 4 1 18 1 1 18 1 1 1 1 1 18 1 1 1 1 12 1 12 1 1 6 1 1 11 11 1 14 1 1 1 1 1 1 1 1 1 18 1 1 1 1 1 12 12 11 11 1 11 1 1 10 1 1 1 1 1 10 1 10 10 1 1 11 17 12 12 1 1 11 10 10 10 1 1 1 1 1 17 1 12 1 1 1 1 3 1 1 18 18 13 18 13 13 1 1 13 1 16 1 1 1 1 1 17 1 11 1 1 1 1 1 1 1 12 1 11 1 1 1 18 1 10 1 1 10 1 1 17 1 17 18 1 1 1 1 1 1 1 11 1 1 1 1 1 1 1 1 1 1 1 1 1 1 12 1 1 1 11 12 18 13 18 1 1 1 17 17 10 10 1 1 1 1 1 1 13 13 1 1 1 1 12 12 1 13 13 1 1 1 1 1 1 1 1 1 1 1 1 17 17 1 1 1 1 1 1 1 1 13 13 1 1 1 17 17 1 10 10 1 12 12 10 10 1 1 1 12 12 1 13 13 1 1 1 1 1 17 17 10 10 1 1 12 12 1 1 17 17 1 1 1 1 1 1 1 1 17 17 1 1 1 1 13 13 1 1 1 1 1 1 1 1 1 18 18 1 1 1 1 1 10 10 1 1 5 13 13 1 1 13 13 11 11 10 10 1 1 1 1 1 1 18 18 1 13 13 1 1 1 1 1 1 1 13 13 1 1 13 13 11 11 1 1 1 1 1 12 12 1 11 11 1 1 1 1 1 1 1 1 11 11 1 1 1 1 17 17 1 1 1 17 17 1 18 18 1 1 12 12 1 12 12 1 18 18 1 1 1 1 17 17 1 1 7 17 17 1 1 1 1 1 1 1 1 1 9 1 2 8 1 1 18 18 1 18 18 1 1 1 1 1 1 1 1 1 1 1 1 1 11 11 1 1 1 11 11 1 1 1 1 1 

