# vtk DataFile Version 3.0
Generated by GMDS VTK Writer

ASCII
DATASET UNSTRUCTURED_GRID
POINTS 125 float
0 0 0
0 10 0
10 10 0
10 0 0
0 0 10
0 10 10
10 10 10
10 0 10
0 4 0
0 4 10
10 4 10
10 4 0
1 0 0
1 0 10
1 4 10
1 4 0
1 10 10
1 10 0
4 0 0
4 0 10
4 4 10
4 4 0
4 10 10
4 10 0
1 0 6
1 4 6
0 4 6
0 0 6
4 0 6
4 4 6
10 0 6
10 4 6
1 10 6
0 10 6
10 10 6
4 10 6
0 1 10
1 1 10
1 1 6
0 1 6
1 1 0
0 1 0
4 1 10
4 1 6
4 1 0
10 1 10
10 1 6
10 1 0
0 1 4
1 1 4
1 4 4
0 4 4
0 0 4
1 0 4
1 10 4
0 10 4
10 10 4
10 4 4
4 4 4
4 10 4
4 0 4
4 1 4
10 0 4
10 1 4
6 10 10
6 4 10
6 4 6
6 10 6
6 0 10
6 0 6
6 1 6
6 1 10
6 10 0
6 4 0
6 4 4
6 10 4
6 0 0
6 1 0
6 1 4
6 0 4
0 8 10
1 8 10
1 8 6
0 8 6
0 8 4
1 8 4
0 8 0
1 8 0
4 8 10
4 8 6
6 8 10
6 8 6
10 8 10
10 8 6
4 8 0
4 8 4
10 8 0
10 8 4
6 8 4
6 8 0
0 1 1
1 1 1
1 4 1
0 4 1
0 0 1
1 0 1
4 0 1
4 1 1
4 4 1
0 8 1
1 8 1
1 10 1
0 10 1
10 0 1
10 1 1
6 1 1
6 0 1
10 4 1
6 4 1
4 8 1
4 10 1
6 8 1
10 8 1
6 10 1
10 10 1

CELLS 240 1200
4 17 87 110 111 
4 4 13 24 27 
4 52 53 49 48 
4 13 19 42 37 
4 109 110 85 84 
4 52 48 39 27 
4 71 70 66 65 
4 65 71 42 20 
4 41 40 15 8 
4 0 12 40 41 
4 10 45 71 65 
4 53 49 38 24 
4 66 70 43 29 
4 36 37 38 39 
4 36 39 26 9 
4 31 46 70 66 
4 52 53 24 27 
4 4 27 39 36 
4 9 14 25 26 
4 86 87 110 109 
4 38 39 26 25 
4 48 49 50 51 
4 101 107 108 102 
4 24 27 39 38 
4 51 48 39 26 
4 37 38 25 14 
4 14 20 88 81 
4 102 108 58 50 
4 13 24 38 37 
4 36 37 14 9 
4 15 21 108 102 
4 4 13 37 36 
4 68 69 70 71 
4 51 50 25 26 
4 14 20 29 25 
4 68 71 42 19 
4 13 19 28 24 
4 7 45 71 68 
4 50 49 38 25 
4 49 48 39 38 
4 71 70 43 42 
4 45 46 70 71 
4 108 107 61 58 
4 69 70 43 28 
4 21 44 107 108 
4 30 46 70 69 
4 5 16 32 33 
4 68 69 28 19 
4 105 106 107 101 
4 101 107 61 49 
4 7 30 69 68 
4 40 44 107 101 
4 106 107 61 60 
4 64 67 35 22 
4 16 22 35 32 
4 6 34 67 64 
4 18 44 107 106 
4 37 42 20 14 
4 19 28 43 42 
4 42 43 29 20 
4 24 28 43 38 
4 38 43 29 25 
4 37 42 43 38 
4 105 106 60 53 
4 12 18 106 105 
4 12 18 44 40 
4 40 44 21 15 
4 65 66 29 20 
4 86 87 17 1 
4 8 15 87 86 
4 84 85 82 83 
4 83 84 55 33 
4 7 30 46 45 
4 45 46 31 10 
4 26 51 84 83 
4 82 85 54 32 
4 25 50 85 82 
4 10 31 66 65 
4 104 105 101 100 
4 104 100 48 52 
4 0 41 100 104 
4 105 101 49 53 
4 12 40 101 105 
4 55 54 32 33 
4 104 105 53 52 
4 0 12 105 104 
4 100 101 102 103 
4 85 84 55 54 
4 50 51 84 85 
4 103 100 48 51 
4 8 41 100 103 
4 80 81 82 83 
4 80 83 33 5 
4 9 26 83 80 
4 50 58 29 25 
4 54 59 35 32 
4 103 102 50 51 
4 53 60 28 24 
4 60 61 43 28 
4 49 61 43 38 
4 53 60 61 49 
4 58 61 43 29 
4 49 61 58 50 
4 82 83 33 32 
4 25 26 83 82 
4 81 82 32 16 
4 14 25 82 81 
4 62 63 46 30 
4 80 81 16 5 
4 57 63 46 31 
4 9 14 81 80 
4 8 15 102 103 
4 102 101 49 50 
4 15 40 101 102 
4 101 100 48 49 
4 31 57 74 66 
4 66 74 58 29 
4 34 56 75 67 
4 67 75 59 35 
4 40 41 100 101 
4 3 47 77 76 
4 76 77 44 18 
4 62 63 78 79 
4 79 78 61 60 
4 46 63 78 70 
4 70 78 61 43 
4 30 62 79 69 
4 69 79 60 28 
4 79 78 70 69 
4 11 47 77 73 
4 73 77 44 21 
4 57 63 78 74 
4 74 78 61 58 
4 74 78 70 66 
4 81 88 22 16 
4 20 29 89 88 
4 88 89 35 22 
4 25 29 89 82 
4 82 89 35 32 
4 81 88 89 82 
4 65 66 91 90 
4 90 91 67 64 
4 29 66 91 89 
4 89 91 67 35 
4 20 65 90 88 
4 88 90 64 22 
4 90 91 89 88 
4 10 31 93 92 
4 92 93 34 6 
4 31 66 91 93 
4 93 91 67 34 
4 10 65 90 92 
4 92 90 64 6 
4 92 93 91 90 
4 15 21 94 87 
4 87 94 23 17 
4 50 58 95 85 
4 85 95 59 54 
4 29 58 95 89 
4 89 95 59 35 
4 85 95 89 82 
4 57 74 98 97 
4 97 98 75 56 
4 11 73 99 96 
4 96 99 72 2 
4 58 74 98 95 
4 95 98 75 59 
4 21 73 99 94 
4 94 99 72 23 
4 31 57 97 93 
4 93 97 56 34 
4 66 74 98 91 
4 91 98 75 67 
4 93 97 98 91 
4 91 98 95 89 
4 111 110 85 54 
4 1 17 111 112 
4 112 111 54 55 
4 1 86 109 112 
4 112 109 84 55 
4 109 110 111 112 
4 15 87 110 102 
4 102 110 85 50 
4 8 86 109 103 
4 103 109 84 51 
4 103 102 110 109 
4 3 47 114 113 
4 113 114 63 62 
4 47 77 115 114 
4 114 115 78 63 
4 76 77 115 116 
4 116 115 78 79 
4 3 76 116 113 
4 113 116 79 62 
4 113 114 115 116 
4 44 77 115 107 
4 107 115 78 61 
4 18 76 116 106 
4 106 116 79 60 
4 116 115 107 106 
4 11 47 114 117 
4 117 114 63 57 
4 73 77 115 118 
4 118 115 78 74 
4 11 73 118 117 
4 117 118 74 57 
4 117 114 115 118 
4 21 73 118 108 
4 108 118 74 58 
4 118 115 107 108 
4 21 94 119 108 
4 108 119 95 58 
4 87 94 119 110 
4 110 119 95 85 
4 102 108 119 110 
4 23 94 119 120 
4 120 119 95 59 
4 17 23 120 111 
4 111 120 59 54 
4 110 119 120 111 
4 73 99 121 118 
4 118 121 98 74 
4 96 99 121 122 
4 122 121 98 97 
4 11 96 122 117 
4 117 122 97 57 
4 117 118 121 122 
4 72 99 121 123 
4 123 121 98 75 
4 2 72 123 124 
4 124 123 75 56 
4 2 96 122 124 
4 124 122 97 56 
4 122 121 123 124 
4 94 99 121 119 
4 119 121 98 95 
4 108 118 121 119 
4 23 72 123 120 
4 120 123 75 59 
4 119 121 123 120 

CELL_TYPES 240
9 
9 
9 
9 
9 
9 
9 
9 
9 
9 
9 
9 
9 
9 
9 
9 
9 
9 
9 
9 
9 
9 
9 
9 
9 
9 
9 
9 
9 
9 
9 
9 
9 
9 
9 
9 
9 
9 
9 
9 
9 
9 
9 
9 
9 
9 
9 
9 
9 
9 
9 
9 
9 
9 
9 
9 
9 
9 
9 
9 
9 
9 
9 
9 
9 
9 
9 
9 
9 
9 
9 
9 
9 
9 
9 
9 
9 
9 
9 
9 
9 
9 
9 
9 
9 
9 
9 
9 
9 
9 
9 
9 
9 
9 
9 
9 
9 
9 
9 
9 
9 
9 
9 
9 
9 
9 
9 
9 
9 
9 
9 
9 
9 
9 
9 
9 
9 
9 
9 
9 
9 
9 
9 
9 
9 
9 
9 
9 
9 
9 
9 
9 
9 
9 
9 
9 
9 
9 
9 
9 
9 
9 
9 
9 
9 
9 
9 
9 
9 
9 
9 
9 
9 
9 
9 
9 
9 
9 
9 
9 
9 
9 
9 
9 
9 
9 
9 
9 
9 
9 
9 
9 
9 
9 
9 
9 
9 
9 
9 
9 
9 
9 
9 
9 
9 
9 
9 
9 
9 
9 
9 
9 
9 
9 
9 
9 
9 
9 
9 
9 
9 
9 
9 
9 
9 
9 
9 
9 
9 
9 
9 
9 
9 
9 
9 
9 
9 
9 
9 
9 
9 
9 
9 
9 
9 
9 
9 
9 
9 
9 
9 
9 
9 
9 
9 
9 
9 
9 
9 
9 
POINT_DATA 125
SCALARS GMDS_ID int 1
LOOKUP_TABLE default
0 1 2 3 4 5 6 7 8 9 10 11 12 13 14 15 16 17 18 19 20 21 22 23 24 25 26 27 28 29 30 31 32 33 34 35 36 37 38 39 40 41 42 43 44 45 46 47 48 49 50 51 52 53 54 55 56 57 58 59 60 61 62 63 64 65 66 67 68 69 70 71 72 73 74 75 76 77 78 79 80 81 82 83 84 85 86 87 88 89 90 91 92 93 94 95 96 97 98 99 100 101 102 103 104 105 106 107 108 109 110 111 112 113 114 115 116 117 118 119 120 121 122 123 124 
SCALARS geom_link_dim int 1
LOOKUP_TABLE default
1 1 1 1 1 1 1 1 2 2 2 2 2 2 3 3 2 2 2 2 3 3 2 2 3 0 3 2 3 0 2 3 3 2 2 3 2 3 0 3 3 2 3 0 3 2 3 2 3 0 0 3 2 3 3 2 2 3 0 3 3 0 2 3 2 3 0 3 2 3 0 3 2 3 0 3 2 3 0 3 2 3 0 3 3 0 2 3 3 0 3 0 2 3 3 0 2 3 0 3 3 0 0 3 2 3 3 0 0 3 0 3 2 2 3 0 3 3 0 0 3 0 3 3 2 
SCALARS geom_link_id int 1
LOOKUP_TABLE default
10 12 16 13 9 11 15 14 19 29 26 31 20 28 18 11 25 30 20 28 18 11 25 30 12 0 10 21 12 0 33 13 17 32 27 17 29 18 0 10 11 19 18 0 11 26 13 31 10 0 0 10 21 12 17 32 27 13 0 17 12 0 33 13 25 18 0 17 28 12 0 18 30 11 0 17 20 11 0 12 29 18 0 10 10 0 19 11 18 0 18 0 26 13 11 0 31 13 0 11 10 -1 -1 10 21 12 12 -1 -1 10 -1 17 32 33 13 -1 12 13 -1 -1 17 -1 13 17 27 


CELL_DATA 240
SCALARS GMDS_ID int 1
LOOKUP_TABLE default
0 1 2 3 4 5 6 7 8 10 11 12 13 14 16 17 18 19 20 21 23 24 25 26 27 28 29 30 31 32 34 35 36 38 40 41 42 43 44 46 48 50 52 53 54 55 56 57 58 59 60 61 62 64 66 67 68 69 70 71 72 73 74 75 76 77 78 79 80 81 82 83 84 85 86 87 88 89 90 91 92 93 94 96 97 98 99 100 101 102 103 104 105 106 108 110 111 113 115 117 118 120 121 122 123 124 125 127 128 130 131 132 135 136 139 140 141 142 143 144 145 146 149 150 154 155 156 157 158 159 160 161 162 164 165 166 167 168 169 170 171 172 173 174 175 176 177 178 179 180 181 182 183 184 185 186 189 190 192 193 194 197 198 201 202 204 205 206 207 209 210 211 212 213 214 215 216 217 218 219 220 221 222 223 224 225 226 227 228 229 230 231 232 233 234 235 236 237 238 239 240 241 242 243 244 245 246 247 248 249 250 251 252 253 254 255 256 257 258 259 260 261 262 263 264 265 266 267 268 269 270 271 272 273 274 275 276 277 278 279 

SCALARS geom_link_dim int 1
LOOKUP_TABLE default
0 0 0 0 0 0 0 0 0 0 0 0 0 0 0 0 0 0 0 0 0 0 0 0 0 0 0 0 0 0 0 0 0 0 0 0 0 0 0 0 0 0 0 0 0 0 0 0 0 0 0 0 0 0 0 0 0 0 0 0 0 0 0 0 0 0 0 0 0 0 0 0 0 0 0 0 0 0 0 0 0 0 0 0 0 0 0 0 0 0 0 0 0 0 0 0 0 0 0 0 0 0 0 0 0 0 0 0 0 0 0 0 0 0 0 0 0 0 0 0 0 0 0 0 0 0 0 0 0 0 0 0 0 0 0 0 0 0 0 0 0 0 0 0 0 0 0 0 0 0 0 0 0 0 0 0 0 0 0 0 0 0 0 0 0 0 0 0 0 0 0 0 0 0 0 0 0 0 0 0 0 0 0 0 0 0 0 0 0 0 0 0 0 0 0 0 0 0 0 0 0 0 0 0 0 0 0 0 0 0 0 0 0 0 0 0 0 0 0 0 0 0 0 0 0 0 0 0 0 0 0 0 0 0 0 0 0 0 0 0 

SCALARS geom_link_id int 1
LOOKUP_TABLE default
-1 0 0 0 -1 0 0 0 0 0 0 0 0 0 0 0 0 0 0 -1 0 0 -1 0 0 0 0 -1 0 0 -1 0 0 0 0 0 0 0 0 0 0 0 -1 0 -1 0 0 0 -1 -1 0 -1 -1 0 0 0 -1 0 0 0 0 0 0 -1 -1 0 0 0 0 0 0 0 0 0 0 0 0 0 -1 -1 -1 -1 -1 0 -1 -1 -1 0 0 -1 -1 0 0 0 0 0 -1 0 0 0 0 0 0 0 0 0 0 0 0 0 0 -1 -1 -1 -1 0 0 0 0 -1 0 0 0 0 0 0 0 0 0 0 0 0 0 0 0 0 0 0 0 0 0 0 0 0 0 0 0 0 0 0 0 0 0 0 0 0 0 0 0 0 0 0 0 0 0 0 0 0 0 0 0 0 0 0 0 -1 -1 -1 -1 -1 -1 -1 -1 -1 -1 -1 -1 -1 -1 -1 -1 -1 -1 -1 -1 -1 -1 -1 -1 -1 -1 -1 -1 -1 -1 -1 -1 -1 -1 -1 -1 -1 -1 -1 -1 -1 -1 -1 -1 -1 -1 -1 -1 -1 -1 -1 -1 -1 -1 -1 -1 -1 -1 -1 -1 -1 -1 -1 -1 -1 

