# vtk DataFile Version 3.0
Generated by GMDS VTK Writer

ASCII
DATASET UNSTRUCTURED_GRID
POINTS 47 float
-5 10 -5
10 10 -5
10 -5 -5
-5 -5 10
-5 10 10
10 10 10
10 -5 10
-5 5 -5
-5 5 10
10 5 10
10 5 -5
-5 -5 -8.88178419700125e-16
10 -5 -8.88178419700125e-16
10 5 0
-5 5 0
10 10 -8.88178419700125e-16
-5 10 -8.88178419700125e-16
-8.88178419700125e-16 -5 -5
0 5 -5
-8.88178419700125e-16 5 0
0 -5 0
0 5 10
-8.88178419700125e-16 -5 10
-8.88178419700125e-16 10 -5
0 10 0
-8.88178419700125e-16 10 10
-5 -4.44089209850063e-16 -5
-5 0 0
0 0 0
0 0 -5
10 0 0
10 -4.44089209850063e-16 -5
-5 -4.44089209850063e-16 10
0 0 10
10 -4.44089209850063e-16 10
-5 10 5
-5 5 5
-4.44089209850063e-16 5 5
0 10 5
10 5 5
10 10 5
-5 -5 5
0 -5 5
-2.22044604925031e-16 0 5
-5 0 5
10 -5 5
10 0 5

CELLS 72 360
4 5 9 39 40 
4 39 37 19 13 
4 2 12 30 31 
4 9 21 37 39 
4 30 28 19 13 
4 35 36 37 38 
4 18 19 13 10 
4 12 20 28 30 
4 26 27 28 29 
4 7 14 19 18 
4 35 38 24 16 
4 26 29 18 7 
4 4 25 38 35 
4 29 28 19 18 
4 17 20 28 29 
4 37 38 24 19 
4 21 25 38 37 
4 27 28 19 14 
4 1 10 13 15 
4 11 20 28 27 
4 26 27 14 7 
4 0 7 14 16 
4 17 20 12 2 
4 36 37 19 14 
4 8 21 37 36 
4 35 36 14 16 
4 4 8 36 35 
4 0 7 18 23 
4 23 18 10 1 
4 14 16 24 19 
4 19 24 15 13 
4 0 16 24 23 
4 23 24 15 1 
4 23 18 19 24 
4 4 8 21 25 
4 25 21 9 5 
4 31 30 13 10 
4 2 17 29 31 
4 31 29 18 10 
4 29 28 30 31 
4 3 22 33 32 
4 32 33 21 8 
4 6 22 33 34 
4 34 33 21 9 
4 40 39 13 15 
4 5 25 38 40 
4 40 38 24 15 
4 38 37 39 40 
4 3 22 42 41 
4 41 42 20 11 
4 22 33 43 42 
4 42 43 28 20 
4 32 33 43 44 
4 44 43 28 27 
4 3 32 44 41 
4 41 44 27 11 
4 41 42 43 44 
4 21 33 43 37 
4 37 43 28 19 
4 8 32 44 36 
4 36 44 27 14 
4 44 43 37 36 
4 6 22 42 45 
4 45 42 20 12 
4 33 34 46 43 
4 43 46 30 28 
4 6 34 46 45 
4 45 46 30 12 
4 45 42 43 46 
4 9 34 46 39 
4 39 46 30 13 
4 46 43 37 39 

CELL_TYPES 72
9 
9 
9 
9 
9 
9 
9 
9 
9 
9 
9 
9 
9 
9 
9 
9 
9 
9 
9 
9 
9 
9 
9 
9 
9 
9 
9 
9 
9 
9 
9 
9 
9 
9 
9 
9 
9 
9 
9 
9 
9 
9 
9 
9 
9 
9 
9 
9 
9 
9 
9 
9 
9 
9 
9 
9 
9 
9 
9 
9 
9 
9 
9 
9 
9 
9 
9 
9 
9 
9 
9 
9 
POINT_DATA 47
SCALARS GMDS_ID int 1
LOOKUP_TABLE default
1 2 3 4 5 6 7 8 9 10 11 12 13 14 15 16 17 18 19 20 21 22 23 24 25 26 27 28 29 30 31 32 33 34 35 36 37 38 39 40 41 42 43 44 45 46 47 
SCALARS geom_link_dim int 1
LOOKUP_TABLE default
0 0 0 0 0 0 0 0 0 0 0 0 0 1 1 0 0 0 1 0 1 1 0 0 1 0 0 1 1 1 1 0 0 1 0 0 1 0 1 1 0 0 1 0 1 0 1 
SCALARS geom_link_id int 1
LOOKUP_TABLE default
-1 -1 -1 -1 -1 -1 -1 -1 -1 -1 -1 -1 -1 21 5 -1 -1 -1 18 0 28 16 -1 -1 4 -1 -1 11 12 19 29 -1 -1 20 -1 -1 6 0 3 22 -1 -1 27 0 13 -1 30 


CELL_DATA 72
SCALARS GMDS_ID int 1
LOOKUP_TABLE default
0 1 3 4 5 6 7 8 9 10 11 12 14 15 16 17 18 19 20 22 23 24 27 28 31 32 35 36 37 38 39 40 41 42 43 44 48 49 50 51 56 57 61 62 64 65 66 67 68 69 70 71 72 73 74 75 76 77 78 79 80 81 82 83 84 85 86 87 88 89 90 91 

SCALARS geom_link_dim int 1
LOOKUP_TABLE default
0 0 0 0 0 0 0 0 0 0 0 0 0 0 0 0 0 0 0 0 0 0 0 0 0 0 0 0 0 0 0 0 0 0 0 0 0 0 0 0 0 0 0 0 0 0 0 0 0 0 0 0 0 0 0 0 0 0 0 0 0 0 0 0 0 0 0 0 0 0 0 0 

SCALARS geom_link_id int 1
LOOKUP_TABLE default
0 0 0 0 0 0 0 0 0 0 0 0 0 0 0 0 0 0 0 0 0 0 0 0 0 0 0 0 0 0 0 0 0 0 0 0 0 0 0 0 0 0 0 0 0 0 0 0 0 0 0 0 0 0 0 0 0 0 0 0 0 0 0 0 0 0 0 0 0 0 0 0 

