# vtk DataFile Version 3.0
Generated by GMDS VTK Writer

ASCII
DATASET UNSTRUCTURED_GRID
POINTS 59 float
5 0 0
5 0 -5
10 10 -5
10 -5 -5
-5 -5 10
-5 10 10
10 10 10
10 -5 10
-5 5 10
10 5 10
10 5 -5
-5 -5 -8.88178419700125e-16
10 -5 -8.88178419700125e-16
10 5 0
-5 5 0
10 10 -8.88178419700125e-16
-8.88178419700125e-16 -5 -5
0 5 -5
0 5 0
0 -5 0
0 5 10
-8.88178419700125e-16 -5 10
-8.88178419700125e-16 10 -5
0 10 0
-8.88178419700125e-16 10 10
-5 0 0
0 0 0
0 0 -5
10 0 0
10 -4.44089209850063e-16 -5
-5 -4.44089209850063e-16 10
0 0 10
10 -4.44089209850063e-16 10
-5 10 5
-5 5 5
0 5 5
0 10 5
10 5 5
10 10 5
-5 -5 5
0 -5 5
-2.22044604925031e-16 0 5
-5 0 5
10 -5 5
10 0 5
5 5 0
5 5 -5
5 -5 -5
5 -5 0
5 5 5
5 10 5
5 10 0
5 5 10
5 10 10
5 10 -5
5 -5 10
5 0 10
5 0 5
5 -5 5

CELLS 95 475
4 6 9 37 38 
4 46 45 13 10 
4 3 12 28 29 
4 33 34 35 36 
4 45 0 28 13 
4 5 24 36 33 
4 27 26 18 17 
4 16 19 26 27 
4 35 36 23 18 
4 20 24 36 35 
4 25 26 18 14 
4 2 10 13 15 
4 18 35 49 45 
4 11 19 26 25 
4 18 26 0 45 
4 45 51 15 13 
4 17 18 45 46 
4 34 35 18 14 
4 18 23 51 45 
4 51 50 38 15 
4 8 20 35 34 
4 23 36 50 51 
4 49 50 38 37 
4 5 8 34 33 
4 0 1 29 28 
4 26 27 1 0 
4 22 17 18 23 
4 5 8 20 24 
4 35 36 50 49 
4 47 48 0 1 
4 47 1 29 3 
4 29 28 13 10 
4 16 27 1 47 
4 48 0 28 12 
4 19 26 0 48 
4 47 48 12 3 
4 4 21 31 30 
4 30 31 20 8 
4 16 19 48 47 
4 1 0 45 46 
4 46 1 29 10 
4 17 27 1 46 
4 38 37 13 15 
4 4 21 40 39 
4 39 40 19 11 
4 21 31 41 40 
4 40 41 26 19 
4 30 31 41 42 
4 42 41 26 25 
4 4 30 42 39 
4 39 42 25 11 
4 39 40 41 42 
4 20 31 41 35 
4 35 41 26 18 
4 8 30 42 34 
4 34 42 25 14 
4 42 41 35 34 
4 7 32 44 43 
4 43 44 28 12 
4 9 32 44 37 
4 37 44 28 13 
4 45 49 37 13 
4 49 50 51 45 
4 20 24 53 52 
4 52 53 6 9 
4 24 36 50 53 
4 53 50 38 6 
4 20 35 49 52 
4 52 49 37 9 
4 52 53 50 49 
4 17 22 54 46 
4 46 54 2 10 
4 22 23 51 54 
4 54 51 15 2 
4 54 46 45 51 
4 21 31 56 55 
4 55 56 32 7 
4 31 41 57 56 
4 56 57 44 32 
4 40 41 57 58 
4 58 57 44 43 
4 21 40 58 55 
4 55 58 43 7 
4 55 56 57 58 
4 26 41 57 0 
4 0 57 44 28 
4 19 40 58 48 
4 48 58 43 12 
4 58 57 0 48 
4 20 31 56 52 
4 52 56 32 9 
4 35 41 57 49 
4 49 57 44 37 
4 52 56 57 49 
4 49 57 0 45 

CELL_TYPES 95
9 
9 
9 
9 
9 
9 
9 
9 
9 
9 
9 
9 
9 
9 
9 
9 
9 
9 
9 
9 
9 
9 
9 
9 
9 
9 
9 
9 
9 
9 
9 
9 
9 
9 
9 
9 
9 
9 
9 
9 
9 
9 
9 
9 
9 
9 
9 
9 
9 
9 
9 
9 
9 
9 
9 
9 
9 
9 
9 
9 
9 
9 
9 
9 
9 
9 
9 
9 
9 
9 
9 
9 
9 
9 
9 
9 
9 
9 
9 
9 
9 
9 
9 
9 
9 
9 
9 
9 
9 
9 
9 
9 
9 
9 
9 
POINT_DATA 59
SCALARS GMDS_ID int 1
LOOKUP_TABLE default
0 1 2 3 4 5 6 7 9 10 11 12 13 14 15 16 18 19 20 21 22 23 24 25 26 28 29 30 31 32 33 34 35 36 37 38 39 40 41 42 43 44 45 46 47 48 49 50 51 52 53 54 55 56 57 58 59 60 61 
SCALARS geom_link_dim int 1
LOOKUP_TABLE default
0 1 0 0 0 0 0 0 0 0 0 0 0 1 1 0 0 1 1 1 1 0 0 1 0 1 1 1 1 0 0 1 0 0 1 1 1 1 0 0 1 0 1 0 1 0 1 0 1 0 1 1 1 0 0 0 1 0 1 
SCALARS geom_link_id int 1
LOOKUP_TABLE default
0 25 -1 -1 -1 -1 -1 -1 -1 -1 -1 -1 -1 21 5 -1 -1 18 1 28 16 -1 -1 4 -1 11 12 19 29 -1 -1 20 -1 -1 6 2 3 22 -1 -1 27 0 13 -1 30 0 17 -1 31 0 7 9 15 -1 -1 -1 24 0 32 


CELL_DATA 95
SCALARS GMDS_ID int 1
LOOKUP_TABLE default
0 2 3 6 13 14 15 16 17 18 19 20 21 22 24 25 26 28 29 30 31 33 34 35 36 40 42 43 45 46 47 48 52 53 54 55 56 57 58 59 60 63 64 68 69 70 71 72 73 74 75 76 77 78 79 80 81 86 87 89 90 92 93 94 95 96 97 98 99 100 101 102 103 104 105 106 107 108 109 110 111 112 113 114 115 116 117 118 119 120 121 122 123 124 125 

SCALARS geom_link_dim int 1
LOOKUP_TABLE default
0 0 0 0 0 0 0 0 0 0 0 0 0 0 0 0 0 0 0 0 0 0 0 0 0 0 0 0 0 0 0 0 0 0 0 0 0 0 0 0 0 0 0 0 0 0 0 0 0 0 0 0 0 0 0 0 0 0 0 0 0 0 0 0 0 0 0 0 0 0 0 0 0 0 0 0 0 0 0 0 0 0 0 0 0 0 0 0 0 0 0 0 0 0 0 

SCALARS geom_link_id int 1
LOOKUP_TABLE default
0 0 0 0 0 0 0 0 0 0 0 0 0 0 0 0 0 0 0 0 0 0 0 0 0 0 0 0 0 0 0 0 0 0 0 0 0 0 0 0 0 0 0 0 0 0 0 0 0 0 0 0 0 0 0 0 0 0 0 0 0 0 0 0 0 0 0 0 0 0 0 0 0 0 0 0 0 0 0 0 0 0 0 0 0 0 0 0 0 0 0 0 0 0 0 

