# vtk DataFile Version 3.0
Generated by GMDS VTK Writer

ASCII
DATASET UNSTRUCTURED_GRID
POINTS 48 float
-5 -5 -5
-5 10 -5
10 10 -5
10 -5 -5
-5 -5 10
-5 10 10
10 10 10
10 -5 10
-5 5 -5
-5 5 10
10 5 10
10 5 -5
-5 -5 -8.88178419700125e-16
10 -5 -8.88178419700125e-16
10 5 0
-5 5 0
10 10 -8.88178419700125e-16
-5 10 -8.88178419700125e-16
-8.88178419700125e-16 -5 -5
0 5 -5
-8.88178419700125e-16 5 0
0 -5 0
0 5 10
-8.88178419700125e-16 -5 10
-8.88178419700125e-16 10 -5
0 10 0
-8.88178419700125e-16 10 10
-5 -4.44089209850063e-16 -5
-5 0 0
-4.44089209850063e-16 0 0
0 0 -5
10 0 0
10 -4.44089209850063e-16 -5
-5 -4.44089209850063e-16 10
0 0 10
10 -4.44089209850063e-16 10
-5 10 5
-5 5 5
-4.44089209850063e-16 5 5
0 10 5
10 5 5
10 10 5
-5 -5 5
0 -5 5
-2.22044604925031e-16 0 5
-5 0 5
10 -5 5
10 0 5

CELLS 75 375
4 6 10 40 41 
4 40 38 20 14 
4 0 12 21 18 
4 3 13 31 32 
4 10 22 38 40 
4 31 29 20 14 
4 36 37 38 39 
4 19 20 14 11 
4 13 21 29 31 
4 27 28 29 30 
4 8 15 20 19 
4 36 39 25 17 
4 27 30 19 8 
4 0 18 30 27 
4 5 26 39 36 
4 30 29 20 19 
4 18 21 29 30 
4 38 39 25 20 
4 22 26 39 38 
4 28 29 20 15 
4 2 11 14 16 
4 12 21 29 28 
4 27 28 15 8 
4 1 8 15 17 
4 0 12 28 27 
4 18 21 13 3 
4 37 38 20 15 
4 9 22 38 37 
4 36 37 15 17 
4 5 9 37 36 
4 1 8 19 24 
4 24 19 11 2 
4 15 17 25 20 
4 20 25 16 14 
4 1 17 25 24 
4 24 25 16 2 
4 24 19 20 25 
4 5 9 22 26 
4 26 22 10 6 
4 32 31 14 11 
4 3 18 30 32 
4 32 30 19 11 
4 30 29 31 32 
4 4 23 34 33 
4 33 34 22 9 
4 7 23 34 35 
4 35 34 22 10 
4 41 40 14 16 
4 6 26 39 41 
4 41 39 25 16 
4 39 38 40 41 
4 4 23 43 42 
4 42 43 21 12 
4 23 34 44 43 
4 43 44 29 21 
4 33 34 44 45 
4 45 44 29 28 
4 4 33 45 42 
4 42 45 28 12 
4 42 43 44 45 
4 22 34 44 38 
4 38 44 29 20 
4 9 33 45 37 
4 37 45 28 15 
4 45 44 38 37 
4 7 23 43 46 
4 46 43 21 13 
4 34 35 47 44 
4 44 47 31 29 
4 7 35 47 46 
4 46 47 31 13 
4 46 43 44 47 
4 10 35 47 40 
4 40 47 31 14 
4 47 44 38 40 

CELL_TYPES 75
9 
9 
9 
9 
9 
9 
9 
9 
9 
9 
9 
9 
9 
9 
9 
9 
9 
9 
9 
9 
9 
9 
9 
9 
9 
9 
9 
9 
9 
9 
9 
9 
9 
9 
9 
9 
9 
9 
9 
9 
9 
9 
9 
9 
9 
9 
9 
9 
9 
9 
9 
9 
9 
9 
9 
9 
9 
9 
9 
9 
9 
9 
9 
9 
9 
9 
9 
9 
9 
9 
9 
9 
9 
9 
9 
POINT_DATA 48
SCALARS GMDS_ID int 1
LOOKUP_TABLE default
0 1 2 3 4 5 6 7 8 9 10 11 12 13 14 15 16 17 18 19 20 21 22 23 24 25 26 27 28 29 30 31 32 33 34 35 36 37 38 39 40 41 42 43 44 45 46 47 
SCALARS geom_link_dim int 1
LOOKUP_TABLE default
0 0 0 0 0 0 0 0 0 0 0 0 0 0 1 1 0 0 0 1 0 1 1 0 0 1 0 0 1 0 1 1 0 0 1 0 0 1 0 1 1 0 0 1 0 1 0 1 
SCALARS geom_link_id int 1
LOOKUP_TABLE default
-1 -1 -1 -1 -1 -1 -1 -1 -1 -1 -1 -1 -1 -1 21 5 -1 -1 -1 18 0 28 16 -1 -1 4 -1 -1 11 0 19 29 -1 -1 20 -1 -1 6 -1 3 22 -1 -1 27 -1 13 -1 30 


CELL_DATA 75
SCALARS GMDS_ID int 1
LOOKUP_TABLE default
0 1 2 3 4 5 6 7 8 9 10 11 12 13 14 15 16 17 18 19 20 22 23 24 26 27 28 31 32 35 36 37 38 39 40 41 42 43 44 48 49 50 51 56 57 61 62 64 65 66 67 68 69 70 71 72 73 74 75 76 77 78 79 80 81 82 83 84 85 86 87 88 89 90 91 

SCALARS geom_link_dim int 1
LOOKUP_TABLE default
0 0 0 0 0 0 0 0 0 0 0 0 0 0 0 0 0 0 0 0 0 0 0 0 0 0 0 0 0 0 0 0 0 0 0 0 0 0 0 0 0 0 0 0 0 0 0 0 0 0 0 0 0 0 0 0 0 0 0 0 0 0 0 0 0 0 0 0 0 0 0 0 0 0 0 

SCALARS geom_link_id int 1
LOOKUP_TABLE default
-1 -1 0 0 -1 0 -1 0 0 0 0 -1 0 0 -1 0 0 -1 -1 0 0 0 0 0 0 0 -1 -1 -1 -1 0 0 0 0 0 0 0 0 0 0 0 0 0 0 0 0 0 -1 -1 -1 -1 -1 -1 -1 -1 -1 -1 -1 -1 -1 -1 -1 -1 -1 -1 -1 -1 -1 -1 -1 -1 -1 -1 -1 -1 

