# vtk DataFile Version 3.0
Generated by GMDS VTK Writer

ASCII
DATASET UNSTRUCTURED_GRID
POINTS 36 float
5 0 0
5 0 -5
10 -5 10
10 5 0
-5 5 0
0 5 -5
0 5 0
0 -5 0
0 5 10
0 10 0
-5 0 0
0 0 0
0 0 -5
10 0 0
0 0 10
10 -4.44089209850063e-16 10
-5 5 5
0 5 5
0 10 5
10 5 5
0 -5 5
0 0 5
-5 0 5
10 -5 5
10 0 5
5 5 0
5 5 -5
5 -5 0
5 5 5
5 10 5
5 10 0
5 5 10
5 -5 10
5 0 10
5 0 5
5 -5 5

CELLS 42 210
4 25 0 13 3 
4 12 11 6 5 
4 17 18 9 6 
4 10 11 6 4 
4 6 17 28 25 
4 6 11 0 25 
4 5 6 25 26 
4 16 17 6 4 
4 6 9 30 25 
4 9 18 29 30 
4 11 12 1 0 
4 17 18 29 28 
4 7 11 0 27 
4 1 0 25 26 
4 5 12 1 26 
4 20 21 11 7 
4 22 21 11 10 
4 8 14 21 17 
4 17 21 11 6 
4 16 22 10 4 
4 22 21 17 16 
4 2 15 24 23 
4 19 24 13 3 
4 25 28 19 3 
4 28 29 30 25 
4 8 17 28 31 
4 32 33 15 2 
4 14 21 34 33 
4 33 34 24 15 
4 20 21 34 35 
4 35 34 24 23 
4 32 35 23 2 
4 32 33 34 35 
4 11 21 34 0 
4 0 34 24 13 
4 7 20 35 27 
4 35 34 0 27 
4 8 14 33 31 
4 17 21 34 28 
4 28 34 24 19 
4 31 33 34 28 
4 28 34 0 25 

CELL_TYPES 42
9 
9 
9 
9 
9 
9 
9 
9 
9 
9 
9 
9 
9 
9 
9 
9 
9 
9 
9 
9 
9 
9 
9 
9 
9 
9 
9 
9 
9 
9 
9 
9 
9 
9 
9 
9 
9 
9 
9 
9 
9 
9 
POINT_DATA 36
SCALARS GMDS_ID int 1
LOOKUP_TABLE default
0 1 7 14 15 19 20 21 22 25 28 29 30 31 34 35 37 38 39 40 43 44 45 46 47 48 49 51 52 53 54 55 58 59 60 61 
SCALARS geom_link_dim int 1
LOOKUP_TABLE default
1 1 0 1 1 1 1 1 1 1 1 1 1 1 1 0 1 1 1 1 1 1 1 0 1 1 1 1 1 1 1 1 0 1 1 1 
SCALARS geom_link_id int 1
LOOKUP_TABLE default
26 25 -1 21 5 18 1 28 16 4 11 12 19 29 20 -1 6 2 3 22 27 14 13 -1 30 10 17 31 8 7 9 15 -1 24 23 32 


CELL_DATA 42
SCALARS GMDS_ID int 1
LOOKUP_TABLE default
13 15 17 19 21 24 26 28 29 33 40 45 54 59 63 71 73 77 78 80 81 86 90 92 93 98 107 108 109 110 111 113 114 115 116 117 119 120 122 123 124 125 

SCALARS geom_link_dim int 1
LOOKUP_TABLE default
3 3 3 3 0 0 3 3 3 3 3 3 3 3 3 3 3 3 0 3 3 0 3 3 3 3 0 3 0 3 0 0 0 0 3 3 3 3 0 3 3 0 

SCALARS geom_link_id int 1
LOOKUP_TABLE default
21 3 7 27 0 0 12 19 14 8 1 13 5 17 26 24 10 16 0 18 9 0 23 11 28 4 0 30 0 6 0 0 0 0 22 29 2 25 0 20 15 0 

