# vtk DataFile Version 3.0
Generated by GMDS VTK Writer

ASCII
DATASET UNSTRUCTURED_GRID
POINTS 75 float
0 0 0
0 10 0
10 10 0
10 0 0
0 0 10
0 10 10
10 10 10
10 0 10
0 1 0
0 1 10
10 1 10
10 1 0
0 0 1
10 0 1
10 1 1
0 1 1
10 10 1
0 10 1
0 6 0
10 6 0
10 6 1
0 6 1
10 6 10
0 6 10
0 0 8
10 0 8
10 1 8
0 1 8
10 6 8
0 6 8
10 10 8
0 10 8
0 4 8
10 4 8
10 4 1
0 4 1
0 4 0
10 4 0
0 4 10
10 4 10
10 4 4
0 4 4
0 6 4
10 6 4
10 1 4
0 1 4
0 0 4
10 0 4
10 10 4
0 10 4
1 0 10
1 1 10
1 1 8
1 0 8
1 0 0
1 1 0
1 1 1
1 0 1
1 6 0
1 6 1
1 10 1
1 10 0
1 6 4
1 4 4
1 4 1
1 6 8
1 4 8
1 10 10
1 6 10
1 10 8
1 4 0
1 4 10
1 1 4
1 0 4
1 10 4

CELLS 128 640
4 3 11 14 13 
4 55 56 14 11 
4 19 20 16 2 
4 4 9 27 24 
4 43 40 34 20 
4 8 15 56 55 
4 28 33 40 43 
4 54 55 11 3 
4 0 8 15 12 
4 0 8 55 54 
4 50 51 52 53 
4 7 10 26 25 
4 50 53 25 7 
4 18 21 17 1 
4 4 24 53 50 
4 53 52 26 25 
4 24 27 52 53 
4 42 41 35 21 
4 51 52 26 10 
4 29 32 41 42 
4 6 22 28 30 
4 9 27 52 51 
4 50 51 10 7 
4 5 23 29 31 
4 4 9 51 50 
4 11 14 34 37 
4 37 34 20 19 
4 8 15 35 36 
4 36 35 21 18 
4 10 26 33 39 
4 39 33 28 22 
4 9 27 32 38 
4 38 32 29 23 
4 27 32 41 45 
4 45 41 35 15 
4 26 33 40 44 
4 44 40 34 14 
4 25 26 44 47 
4 47 44 14 13 
4 24 27 45 46 
4 46 45 15 12 
4 28 30 48 43 
4 43 48 16 20 
4 29 31 49 42 
4 42 49 17 21 
4 12 15 56 57 
4 57 56 14 13 
4 0 12 57 54 
4 54 57 13 3 
4 54 55 56 57 
4 18 21 59 58 
4 58 59 20 19 
4 17 21 59 60 
4 60 59 20 16 
4 1 17 60 61 
4 61 60 16 2 
4 1 18 58 61 
4 61 58 19 2 
4 58 59 60 61 
4 41 42 62 63 
4 63 62 43 40 
4 35 41 63 64 
4 64 63 40 34 
4 21 35 64 59 
4 59 64 34 20 
4 21 42 62 59 
4 59 62 43 20 
4 62 63 64 59 
4 29 32 66 65 
4 65 66 33 28 
4 32 41 63 66 
4 66 63 40 33 
4 29 42 62 65 
4 65 62 43 28 
4 65 66 63 62 
4 5 23 68 67 
4 67 68 22 6 
4 23 29 65 68 
4 68 65 28 22 
4 29 31 69 65 
4 65 69 30 28 
4 5 31 69 67 
4 67 69 30 6 
4 67 68 65 69 
4 15 35 64 56 
4 56 64 34 14 
4 35 36 70 64 
4 64 70 37 34 
4 8 36 70 55 
4 55 70 37 11 
4 55 56 64 70 
4 18 36 70 58 
4 58 70 37 19 
4 70 64 59 58 
4 27 32 66 52 
4 52 66 33 26 
4 32 38 71 66 
4 66 71 39 33 
4 9 38 71 51 
4 51 71 39 10 
4 51 52 66 71 
4 23 38 71 68 
4 68 71 39 22 
4 71 66 65 68 
4 41 45 72 63 
4 63 72 44 40 
4 27 45 72 52 
4 52 72 44 26 
4 52 66 63 72 
4 15 45 72 56 
4 56 72 44 14 
4 72 63 64 56 
4 45 46 73 72 
4 72 73 47 44 
4 24 46 73 53 
4 53 73 47 25 
4 53 52 72 73 
4 12 46 73 57 
4 57 73 47 13 
4 73 72 56 57 
4 31 49 74 69 
4 69 74 48 30 
4 42 49 74 62 
4 62 74 48 43 
4 65 69 74 62 
4 17 49 74 60 
4 60 74 48 16 
4 62 74 60 59 

CELL_TYPES 128
9 
9 
9 
9 
9 
9 
9 
9 
9 
9 
9 
9 
9 
9 
9 
9 
9 
9 
9 
9 
9 
9 
9 
9 
9 
9 
9 
9 
9 
9 
9 
9 
9 
9 
9 
9 
9 
9 
9 
9 
9 
9 
9 
9 
9 
9 
9 
9 
9 
9 
9 
9 
9 
9 
9 
9 
9 
9 
9 
9 
9 
9 
9 
9 
9 
9 
9 
9 
9 
9 
9 
9 
9 
9 
9 
9 
9 
9 
9 
9 
9 
9 
9 
9 
9 
9 
9 
9 
9 
9 
9 
9 
9 
9 
9 
9 
9 
9 
9 
9 
9 
9 
9 
9 
9 
9 
9 
9 
9 
9 
9 
9 
9 
9 
9 
9 
9 
9 
9 
9 
9 
9 
9 
9 
9 
9 
9 
9 
POINT_DATA 75
SCALARS GMDS_ID int 1
LOOKUP_TABLE default
0 1 2 3 4 5 6 7 8 9 10 11 12 13 14 15 16 17 18 19 20 21 22 23 24 25 26 27 28 29 30 31 32 33 34 35 36 37 38 39 40 41 42 43 44 45 46 47 48 49 50 51 52 53 54 55 56 57 58 59 60 61 62 63 64 65 66 67 68 69 70 71 72 73 74 
SCALARS geom_link_dim int 1
LOOKUP_TABLE default
1 1 1 1 1 1 1 1 2 2 2 2 2 2 3 3 2 2 2 2 3 3 2 2 2 2 3 3 3 3 2 2 3 3 3 3 2 2 2 2 3 3 3 3 3 3 2 2 2 2 2 3 0 3 2 3 0 3 3 0 3 2 0 0 0 0 0 2 3 3 3 3 0 3 3 
SCALARS geom_link_id int 1
LOOKUP_TABLE default
10 12 16 13 9 11 15 14 19 29 26 31 21 33 13 10 27 32 19 31 13 10 26 29 21 33 13 10 13 10 27 32 10 13 13 10 19 31 29 26 13 10 10 13 13 10 21 33 27 32 28 18 -1 12 20 11 -1 12 11 -1 17 30 -1 -1 -1 -1 -1 25 18 17 11 18 -1 12 17 


CELL_DATA 128
SCALARS GMDS_ID int 1
LOOKUP_TABLE default
1 3 7 9 10 13 14 16 17 18 21 24 25 27 30 33 36 39 41 42 45 46 48 49 50 53 54 55 56 60 61 62 63 66 67 68 69 73 74 75 76 78 79 82 83 85 86 87 88 89 90 91 92 93 94 95 96 97 98 99 100 101 102 103 104 105 106 107 108 109 110 111 112 113 114 115 116 117 118 119 120 121 122 123 124 125 126 127 128 129 130 131 132 133 134 135 136 137 138 139 140 141 142 143 144 145 146 147 148 149 150 151 152 153 154 155 156 157 158 159 160 161 162 163 164 165 166 167 

SCALARS geom_link_dim int 1
LOOKUP_TABLE default
0 0 0 0 0 0 0 0 0 0 0 0 0 0 0 0 0 0 0 0 0 0 0 0 0 0 0 0 0 0 0 0 0 0 0 0 0 0 0 0 0 0 0 0 0 0 0 0 0 0 0 0 0 0 0 0 0 0 0 0 0 0 0 0 0 0 0 0 0 0 0 0 0 0 0 0 0 0 0 0 0 0 0 0 0 0 0 0 0 0 0 0 0 0 0 0 0 0 0 0 0 0 0 0 0 0 0 0 0 0 0 0 0 0 0 0 0 0 0 0 0 0 0 0 0 0 0 0 

SCALARS geom_link_id int 1
LOOKUP_TABLE default
0 -1 0 0 0 -1 0 -1 0 -1 -1 0 -1 0 -1 -1 -1 0 -1 0 0 -1 -1 0 -1 0 0 0 0 0 0 0 0 0 0 0 0 0 0 0 0 0 0 0 0 -1 -1 -1 -1 -1 -1 -1 -1 -1 -1 -1 -1 -1 -1 -1 -1 -1 -1 -1 -1 -1 -1 -1 -1 -1 -1 -1 -1 -1 -1 -1 -1 -1 -1 -1 -1 -1 -1 -1 -1 -1 -1 -1 -1 -1 -1 -1 -1 -1 -1 -1 -1 -1 -1 -1 -1 -1 -1 -1 -1 -1 -1 -1 -1 -1 -1 -1 -1 -1 -1 -1 -1 -1 -1 -1 -1 -1 -1 -1 -1 -1 -1 -1 

