# vtk DataFile Version 3.0
Generated by GMDS VTK Writer

ASCII
DATASET UNSTRUCTURED_GRID
POINTS 216 float
0 0 0
0 10 0
10 10 0
10 0 0
0 0 10
0 10 10
10 10 10
10 0 10
0 1 0
0 1 10
10 1 10
10 1 0
0 0 1
10 0 1
10 1 1
0 1 1
10 10 1
0 10 1
0 6 0
10 6 0
10 6 1
0 6 1
10 6 10
0 6 10
0 0 8
10 0 8
10 1 8
0 1 8
10 6 8
0 6 8
10 10 8
0 10 8
0 4 8
10 4 8
10 4 1
0 4 1
0 4 0
10 4 0
0 4 10
10 4 10
10 4 4
0 4 4
0 6 4
10 6 4
10 1 4
0 1 4
0 0 4
10 0 4
10 10 4
0 10 4
1 0 10
1 1 10
1 1 8
1 0 8
1 0 0
1 1 0
1 1 1
1 0 1
1 6 0
1 6 1
1 10 1
1 10 0
1 6 4
1 4 4
1 4 1
1 6 8
1 4 8
1 10 10
1 6 10
1 10 8
1 4 0
1 4 10
1 1 4
1 0 4
1 10 4
4 0 10
4 1 10
4 1 8
4 0 8
4 0 0
4 1 0
4 1 1
4 0 1
4 6 0
4 6 1
4 10 1
4 10 0
4 6 4
4 4 4
4 4 1
4 6 8
4 4 8
4 10 10
4 6 10
4 10 8
4 4 0
4 4 10
4 1 4
4 0 4
4 10 4
4 8 1
4 8 0
10 8 0
10 8 1
1 8 1
1 8 0
0 8 0
0 8 1
0 8 10
0 8 8
1 8 8
1 8 10
0 8 4
1 8 4
4 8 8
4 8 10
10 8 8
10 8 10
4 8 4
10 8 4
8 6 4
8 4 4
8 4 1
8 6 1
8 0 0
8 1 0
8 1 1
8 0 1
8 0 10
8 1 10
8 1 8
8 0 8
8 8 1
8 8 0
8 6 0
8 10 1
8 10 0
8 6 8
8 4 8
8 4 0
8 4 10
8 6 10
8 1 4
8 0 4
8 10 10
8 10 8
8 8 8
8 8 10
8 10 4
8 8 4
1 6 6
1 4 6
4 4 6
4 6 6
0 0 6
0 1 6
1 1 6
1 0 6
8 1 6
8 0 6
10 0 6
10 1 6
4 1 6
4 0 6
0 8 6
1 8 6
0 6 6
0 10 6
1 10 6
0 4 6
4 10 6
4 8 6
8 4 6
8 6 6
10 4 6
10 6 6
8 8 6
8 10 6
10 8 6
10 10 6
6 6 4
6 4 4
6 4 1
6 6 1
6 0 0
6 1 0
6 1 1
6 0 1
6 0 10
6 1 10
6 1 8
6 0 8
6 1 6
6 0 6
6 0 4
6 1 4
6 8 1
6 8 0
6 6 0
6 10 1
6 10 0
6 4 0
6 4 8
6 4 10
6 6 8
6 6 10
6 10 10
6 10 8
6 8 8
6 8 10
6 6 6
6 4 6
6 10 4
6 8 4
6 8 6
6 10 6

CELLS 450 2250
4 31 69 168 167 
4 3 11 14 13 
4 200 197 133 136 
4 17 49 112 107 
4 164 165 150 166 
4 65 66 91 90 
4 87 88 89 84 
4 134 133 102 19 
4 166 164 112 42 
4 4 9 27 24 
4 43 40 34 20 
4 59 62 87 84 
4 29 109 164 166 
4 8 15 56 55 
4 86 101 197 200 
4 59 64 89 84 
4 199 200 136 135 
4 0 8 15 12 
4 0 8 55 54 
4 166 150 62 42 
4 63 64 89 88 
4 50 51 52 53 
4 29 65 150 166 
4 62 63 88 87 
4 7 10 26 25 
4 85 86 200 199 
4 132 133 102 103 
4 128 129 130 131 
4 4 24 53 50 
4 150 165 113 62 
4 60 61 86 85 
4 196 197 198 183 
4 128 131 25 7 
4 24 27 52 53 
4 65 110 165 150 
4 58 59 84 83 
4 42 41 35 21 
4 79 80 81 82 
4 112 113 62 42 
4 183 196 132 123 
4 164 165 113 112 
4 54 57 82 79 
4 130 131 25 26 
4 9 27 52 51 
4 109 110 165 164 
4 49 74 113 112 
4 4 9 51 50 
4 56 57 82 81 
4 156 157 163 162 
4 11 14 34 37 
4 37 34 20 19 
4 8 15 35 36 
4 36 35 21 18 
4 55 56 81 80 
4 156 162 97 72 
4 54 55 80 79 
4 10 26 33 39 
4 39 33 28 22 
4 9 27 32 38 
4 38 32 29 23 
4 75 76 77 78 
4 52 77 162 156 
4 84 100 196 183 
4 45 41 35 15 
4 198 183 123 134 
4 44 40 34 14 
4 50 53 78 75 
4 157 163 98 73 
4 52 53 78 77 
4 83 84 183 198 
4 47 44 14 13 
4 198 197 133 134 
4 46 45 15 12 
4 53 78 163 157 
4 129 130 26 10 
4 51 52 77 76 
4 128 129 10 7 
4 50 51 76 75 
4 12 15 56 57 
4 83 101 197 198 
4 0 12 57 54 
4 196 197 133 132 
4 54 55 56 57 
4 18 21 59 58 
4 108 109 110 111 
4 124 125 126 127 
4 108 111 68 23 
4 1 17 60 61 
4 5 67 111 108 
4 124 127 13 3 
4 111 110 65 68 
4 41 42 62 63 
4 67 69 110 111 
4 35 41 63 64 
4 109 110 65 29 
4 21 35 64 59 
4 31 69 110 109 
4 21 42 62 59 
4 108 109 29 23 
4 62 63 64 59 
4 29 32 66 65 
4 5 31 109 108 
4 100 101 197 196 
4 106 107 104 105 
4 192 193 194 195 
4 106 105 58 18 
4 195 192 158 142 
4 126 127 13 14 
4 1 61 105 106 
4 23 29 65 68 
4 107 104 59 21 
4 17 60 104 107 
4 5 31 69 67 
4 106 107 21 18 
4 125 126 14 11 
4 15 35 64 56 
4 1 17 107 106 
4 35 36 70 64 
4 104 105 101 100 
4 8 36 70 55 
4 104 100 84 59 
4 55 56 64 70 
4 18 36 70 58 
4 60 85 100 104 
4 70 64 59 58 
4 27 32 66 52 
4 105 101 83 58 
4 32 38 71 66 
4 61 86 101 105 
4 9 38 71 51 
4 104 105 58 59 
4 51 52 66 71 
4 23 38 71 68 
4 60 61 105 104 
4 71 66 65 68 
4 41 45 72 63 
4 97 162 192 195 
4 195 194 143 142 
4 15 45 72 56 
4 72 63 64 56 
4 45 46 73 72 
4 102 103 20 19 
4 97 98 194 195 
4 2 16 103 102 
4 194 193 159 143 
4 12 46 73 57 
4 73 72 56 57 
4 98 163 193 194 
4 162 163 98 97 
4 100 101 83 84 
4 124 125 11 3 
4 17 49 74 60 
4 85 86 101 100 
4 192 193 159 158 
4 77 78 163 162 
4 162 163 193 192 
4 120 121 122 123 
4 123 120 43 20 
4 65 68 93 90 
4 158 159 160 161 
4 123 122 34 20 
4 67 69 94 92 
4 161 158 142 44 
4 56 64 89 81 
4 26 130 158 161 
4 64 70 95 89 
4 160 161 44 47 
4 55 70 95 80 
4 25 26 161 160 
4 80 81 89 95 
4 58 70 95 83 
4 160 159 143 47 
4 95 89 84 83 
4 52 66 91 77 
4 25 131 159 160 
4 66 71 96 91 
4 158 159 143 142 
4 51 71 96 76 
4 130 131 159 158 
4 76 77 91 96 
4 68 71 96 93 
4 154 155 156 157 
4 96 91 90 93 
4 63 72 97 88 
4 154 157 73 46 
4 188 189 190 191 
4 24 53 157 154 
4 188 191 131 128 
4 56 72 97 81 
4 156 157 73 72 
4 97 88 89 81 
4 72 73 98 97 
4 52 53 157 156 
4 75 78 191 188 
4 155 156 72 45 
4 190 191 131 130 
4 57 73 98 82 
4 27 52 156 155 
4 98 97 81 82 
4 77 78 191 190 
4 154 155 45 46 
4 121 122 34 40 
4 120 121 40 43 
4 60 74 99 85 
4 24 27 155 154 
4 107 112 42 21 
4 60 74 113 104 
4 104 113 62 59 
4 107 112 113 104 
4 69 94 114 110 
4 110 114 90 65 
4 92 94 114 115 
4 115 114 90 93 
4 67 92 115 111 
4 111 115 93 68 
4 111 110 114 115 
4 150 151 152 153 
4 150 153 87 62 
4 6 30 116 117 
4 117 116 28 22 
4 65 90 153 150 
4 153 152 88 87 
4 90 91 152 153 
4 74 99 118 113 
4 113 118 87 62 
4 189 190 130 129 
4 76 77 190 189 
4 188 189 129 128 
4 151 152 88 63 
4 66 91 152 151 
4 75 76 189 188 
4 184 185 186 187 
4 150 151 63 62 
4 85 99 118 100 
4 100 118 87 84 
4 104 113 118 100 
4 16 48 119 103 
4 103 119 43 20 
4 65 66 151 150 
4 134 123 20 19 
4 123 132 103 20 
4 132 133 134 123 
4 135 136 2 16 
4 136 133 102 2 
4 135 132 103 16 
4 135 136 133 132 
4 137 138 33 28 
4 184 187 127 124 
4 79 82 187 184 
4 186 187 127 126 
4 81 82 187 186 
4 185 186 126 125 
4 126 122 34 14 
4 122 139 37 34 
4 125 139 37 11 
4 125 126 122 139 
4 134 139 37 19 
4 139 122 123 134 
4 130 138 33 26 
4 138 140 39 33 
4 129 140 39 10 
4 129 130 138 140 
4 137 141 22 28 
4 141 140 39 22 
4 140 138 137 141 
4 121 142 44 40 
4 80 81 186 185 
4 184 185 125 124 
4 79 80 185 184 
4 126 142 44 14 
4 142 121 122 126 
4 142 143 47 44 
4 180 181 182 183 
4 183 180 120 123 
4 84 87 180 183 
4 127 143 47 13 
4 143 142 126 127 
4 144 145 30 6 
4 145 146 116 30 
4 146 147 117 116 
4 144 147 117 6 
4 144 145 146 147 
4 137 146 116 28 
4 141 147 117 22 
4 147 146 137 141 
4 183 182 122 123 
4 84 89 182 183 
4 148 149 119 48 
4 181 182 122 121 
4 88 89 182 181 
4 180 181 121 120 
4 120 149 119 43 
4 87 88 181 180 
4 135 148 48 16 
4 132 149 119 103 
4 135 148 149 132 
4 132 149 120 123 
4 167 168 74 49 
4 69 110 165 168 
4 168 165 113 74 
4 31 109 164 167 
4 167 164 112 49 
4 167 168 165 164 
4 29 32 169 166 
4 166 169 41 42 
4 32 66 151 169 
4 169 151 63 41 
4 166 169 151 150 
4 27 32 169 155 
4 155 169 41 45 
4 52 66 151 156 
4 156 151 63 72 
4 155 169 151 156 
4 77 91 152 162 
4 162 152 88 97 
4 156 151 152 162 
4 69 94 170 168 
4 168 170 99 74 
4 94 114 171 170 
4 170 171 118 99 
4 110 114 171 165 
4 165 171 118 113 
4 168 170 171 165 
4 90 114 171 153 
4 153 171 118 87 
4 165 171 153 150 
4 137 138 172 173 
4 173 172 121 120 
4 33 138 172 174 
4 174 172 121 40 
4 28 33 174 175 
4 175 174 40 43 
4 28 137 173 175 
4 175 173 120 43 
4 173 172 174 175 
4 130 138 172 158 
4 158 172 121 142 
4 26 33 174 161 
4 161 174 40 44 
4 158 172 174 161 
4 145 146 176 177 
4 177 176 149 148 
4 116 146 176 178 
4 178 176 149 119 
4 30 116 178 179 
4 179 178 119 48 
4 30 145 177 179 
4 179 177 148 48 
4 177 176 178 179 
4 137 146 176 173 
4 173 176 149 120 
4 28 116 178 175 
4 175 178 119 43 
4 173 176 178 175 
4 85 100 196 199 
4 199 196 132 135 
4 199 200 197 196 
4 78 163 193 191 
4 191 193 159 131 
4 77 162 192 190 
4 190 192 158 130 
4 190 191 193 192 
4 81 89 182 186 
4 186 182 122 126 
4 89 95 201 182 
4 182 201 139 122 
4 80 95 201 185 
4 185 201 139 125 
4 185 186 182 201 
4 83 95 201 198 
4 198 201 139 134 
4 201 182 183 198 
4 77 91 202 190 
4 190 202 138 130 
4 91 96 203 202 
4 202 203 140 138 
4 76 96 203 189 
4 189 203 140 129 
4 189 190 202 203 
4 90 91 202 204 
4 204 202 138 137 
4 90 93 205 204 
4 204 205 141 137 
4 93 96 203 205 
4 205 203 140 141 
4 203 202 204 205 
4 88 97 195 181 
4 181 195 142 121 
4 81 97 195 186 
4 186 195 142 126 
4 195 181 182 186 
4 82 98 194 187 
4 187 194 143 127 
4 194 195 186 187 
4 92 94 207 206 
4 206 207 145 144 
4 94 114 208 207 
4 207 208 146 145 
4 114 115 209 208 
4 208 209 147 146 
4 92 115 209 206 
4 206 209 147 144 
4 206 207 208 209 
4 90 114 208 204 
4 204 208 146 137 
4 93 115 209 205 
4 205 209 147 141 
4 209 208 204 205 
4 152 153 210 211 
4 211 210 173 172 
4 88 152 211 181 
4 181 211 172 121 
4 87 153 210 180 
4 180 210 173 120 
4 210 211 181 180 
4 91 152 211 202 
4 202 211 172 138 
4 90 153 210 204 
4 204 210 173 137 
4 204 202 211 210 
4 85 99 212 199 
4 199 212 148 135 
4 99 118 213 212 
4 212 213 149 148 
4 100 118 213 196 
4 196 213 149 132 
4 199 212 213 196 
4 87 118 213 180 
4 180 213 149 120 
4 196 213 180 183 
4 152 162 192 211 
4 211 192 158 172 
4 190 202 211 192 
4 192 211 181 195 
4 114 171 214 208 
4 208 214 176 146 
4 170 171 214 215 
4 215 214 176 177 
4 94 170 215 207 
4 207 215 177 145 
4 207 208 214 215 
4 118 171 214 213 
4 213 214 176 149 
4 99 170 215 212 
4 212 215 177 148 
4 215 214 213 212 
4 153 171 214 210 
4 210 214 176 173 
4 204 208 214 210 
4 210 214 213 180 

CELL_TYPES 450
9 
9 
9 
9 
9 
9 
9 
9 
9 
9 
9 
9 
9 
9 
9 
9 
9 
9 
9 
9 
9 
9 
9 
9 
9 
9 
9 
9 
9 
9 
9 
9 
9 
9 
9 
9 
9 
9 
9 
9 
9 
9 
9 
9 
9 
9 
9 
9 
9 
9 
9 
9 
9 
9 
9 
9 
9 
9 
9 
9 
9 
9 
9 
9 
9 
9 
9 
9 
9 
9 
9 
9 
9 
9 
9 
9 
9 
9 
9 
9 
9 
9 
9 
9 
9 
9 
9 
9 
9 
9 
9 
9 
9 
9 
9 
9 
9 
9 
9 
9 
9 
9 
9 
9 
9 
9 
9 
9 
9 
9 
9 
9 
9 
9 
9 
9 
9 
9 
9 
9 
9 
9 
9 
9 
9 
9 
9 
9 
9 
9 
9 
9 
9 
9 
9 
9 
9 
9 
9 
9 
9 
9 
9 
9 
9 
9 
9 
9 
9 
9 
9 
9 
9 
9 
9 
9 
9 
9 
9 
9 
9 
9 
9 
9 
9 
9 
9 
9 
9 
9 
9 
9 
9 
9 
9 
9 
9 
9 
9 
9 
9 
9 
9 
9 
9 
9 
9 
9 
9 
9 
9 
9 
9 
9 
9 
9 
9 
9 
9 
9 
9 
9 
9 
9 
9 
9 
9 
9 
9 
9 
9 
9 
9 
9 
9 
9 
9 
9 
9 
9 
9 
9 
9 
9 
9 
9 
9 
9 
9 
9 
9 
9 
9 
9 
9 
9 
9 
9 
9 
9 
9 
9 
9 
9 
9 
9 
9 
9 
9 
9 
9 
9 
9 
9 
9 
9 
9 
9 
9 
9 
9 
9 
9 
9 
9 
9 
9 
9 
9 
9 
9 
9 
9 
9 
9 
9 
9 
9 
9 
9 
9 
9 
9 
9 
9 
9 
9 
9 
9 
9 
9 
9 
9 
9 
9 
9 
9 
9 
9 
9 
9 
9 
9 
9 
9 
9 
9 
9 
9 
9 
9 
9 
9 
9 
9 
9 
9 
9 
9 
9 
9 
9 
9 
9 
9 
9 
9 
9 
9 
9 
9 
9 
9 
9 
9 
9 
9 
9 
9 
9 
9 
9 
9 
9 
9 
9 
9 
9 
9 
9 
9 
9 
9 
9 
9 
9 
9 
9 
9 
9 
9 
9 
9 
9 
9 
9 
9 
9 
9 
9 
9 
9 
9 
9 
9 
9 
9 
9 
9 
9 
9 
9 
9 
9 
9 
9 
9 
9 
9 
9 
9 
9 
9 
9 
9 
9 
9 
9 
9 
9 
9 
9 
9 
9 
9 
9 
9 
9 
9 
9 
9 
9 
9 
9 
9 
9 
9 
9 
9 
9 
9 
9 
9 
9 
9 
9 
9 
9 
9 
9 
9 
9 
9 
9 
9 
9 
9 
9 
9 
9 
9 
9 
9 
9 
9 
9 
9 
9 
9 
9 
POINT_DATA 216
SCALARS GMDS_ID int 1
LOOKUP_TABLE default
0 1 2 3 4 5 6 7 8 9 10 11 12 13 14 15 16 17 18 19 20 21 22 23 24 25 26 27 28 29 30 31 32 33 34 35 36 37 38 39 40 41 42 43 44 45 46 47 48 49 50 51 52 53 54 55 56 57 58 59 60 61 62 63 64 65 66 67 68 69 70 71 72 73 74 75 76 77 78 79 80 81 82 83 84 85 86 87 88 89 90 91 92 93 94 95 96 97 98 99 100 101 102 103 104 105 106 107 108 109 110 111 112 113 114 115 116 117 118 119 120 121 122 123 124 125 126 127 128 129 130 131 132 133 134 135 136 137 138 139 140 141 142 143 144 145 146 147 148 149 150 151 152 153 154 155 156 157 158 159 160 161 162 163 164 165 166 167 168 169 170 171 172 173 174 175 176 177 178 179 180 181 182 183 184 185 186 187 188 189 190 191 192 193 194 195 196 197 198 199 200 201 202 203 204 205 206 207 208 209 210 211 212 213 214 215 
SCALARS geom_link_dim int 1
LOOKUP_TABLE default
1 1 1 1 1 1 1 1 2 2 2 2 2 2 3 3 2 2 2 2 3 3 2 2 2 2 3 3 3 3 2 2 3 3 3 3 2 2 2 2 3 3 3 3 3 3 2 2 2 2 2 3 4 3 2 3 1 3 3 4 3 2 4 1 1 4 4 2 3 3 3 3 1 3 3 2 3 4 3 2 3 1 3 3 4 3 2 4 1 1 4 4 2 3 3 3 3 1 3 3 4 3 2 3 4 3 2 3 2 3 4 3 3 4 4 3 3 2 4 3 4 4 4 4 2 3 4 3 2 3 4 3 4 3 3 3 2 1 4 3 3 3 4 3 2 3 1 3 3 4 4 4 4 4 2 3 4 3 4 3 2 3 4 3 3 4 3 2 3 3 3 4 4 1 3 3 1 3 3 2 4 4 4 4 2 3 4 3 2 3 4 3 4 3 3 4 4 3 3 3 2 3 4 3 1 3 2 3 1 3 1 4 3 4 1 3 
SCALARS geom_link_id int 1
LOOKUP_TABLE default
10 12 16 13 9 11 15 14 19 29 26 31 21 33 13 10 27 32 19 31 13 10 26 29 21 33 13 10 13 10 27 32 10 13 13 10 19 31 29 26 13 10 10 13 13 10 21 33 27 32 28 18 1 12 20 11 18 12 11 1 17 30 1 19 20 1 1 25 18 17 11 18 17 12 17 28 18 1 12 20 11 21 12 11 1 17 30 1 23 24 1 1 25 18 17 11 18 22 12 17 1 11 31 13 1 11 19 10 29 10 1 18 10 1 1 18 13 26 1 13 1 1 1 1 20 11 1 12 28 18 1 12 1 11 11 17 30 5 1 11 18 18 1 12 25 17 7 18 17 1 1 1 1 1 21 10 1 12 1 12 33 13 1 12 10 1 10 32 17 10 17 1 1 6 13 13 8 17 13 27 1 1 1 1 20 11 1 12 28 18 1 12 1 12 12 1 1 11 11 17 30 11 1 18 1 18 25 17 3 18 2 1 17 1 4 17 


CELL_DATA 450
SCALARS GMDS_ID int 1
LOOKUP_TABLE default
0 1 2 3 4 5 6 7 8 9 10 11 12 13 14 15 16 17 18 19 20 21 22 23 24 25 27 29 30 31 32 33 34 36 37 38 39 40 41 42 43 44 45 46 47 48 50 51 52 53 54 55 56 57 58 59 60 61 62 63 64 65 66 67 68 69 70 71 72 73 74 75 76 77 78 80 82 84 85 86 87 88 89 90 91 92 93 94 95 96 97 99 100 101 102 103 104 105 106 107 108 109 110 111 112 113 114 115 116 117 118 120 121 122 123 124 125 126 127 128 129 130 131 132 133 134 135 136 137 138 139 140 141 142 143 144 146 148 149 151 152 153 154 155 156 157 159 160 161 163 164 165 166 168 169 170 171 172 173 174 176 177 178 180 181 182 183 184 185 186 187 188 189 190 191 192 193 194 195 196 197 198 199 200 201 202 203 204 205 206 207 208 209 210 211 212 213 214 215 216 217 218 220 221 222 224 225 226 227 228 229 230 231 232 233 234 235 236 237 238 239 240 241 242 243 244 245 246 247 248 249 250 251 252 253 254 255 256 257 259 261 262 264 266 268 269 271 272 273 274 275 276 278 280 282 283 285 286 288 290 292 293 295 297 298 300 301 302 303 305 306 308 309 310 311 313 314 316 318 320 322 323 325 327 328 329 330 332 333 334 335 337 338 340 342 343 344 345 346 347 348 349 350 351 352 353 354 355 356 357 358 359 360 361 362 363 364 365 366 367 368 369 370 371 372 373 376 377 381 382 383 384 385 386 387 388 389 391 392 393 396 397 401 402 403 404 405 406 407 408 409 411 412 413 414 415 416 417 418 419 420 421 422 423 424 425 426 427 428 429 430 431 432 433 434 435 436 437 438 439 440 441 442 443 444 445 446 447 448 449 450 451 452 453 454 455 456 457 458 459 460 461 462 463 464 465 466 467 468 469 470 471 472 473 474 475 476 477 478 479 480 481 482 483 484 485 486 487 488 489 490 491 492 493 494 495 496 497 498 499 500 501 502 503 504 505 506 507 508 509 

SCALARS geom_link_dim int 1
LOOKUP_TABLE default
3 3 3 3 4 4 4 3 3 3 3 4 3 4 3 4 3 3 3 4 3 4 4 4 3 3 4 4 3 4 3 4 3 4 4 4 3 4 4 4 4 3 4 4 4 4 3 4 4 3 3 3 3 4 4 3 3 3 3 3 4 4 4 3 4 3 3 3 4 4 3 3 3 3 4 4 3 3 4 3 3 4 4 4 4 4 3 3 3 3 4 4 4 4 4 4 4 4 3 4 4 3 4 4 4 3 4 4 3 4 4 4 3 3 4 4 3 4 4 3 4 4 3 4 4 4 3 4 3 3 4 4 3 4 4 4 4 4 4 3 4 3 4 3 3 3 4 3 4 4 3 3 4 4 4 4 4 4 4 4 4 3 4 3 4 4 3 3 3 4 3 3 4 4 3 4 4 3 4 4 3 4 4 3 3 4 3 3 3 4 3 4 4 3 4 4 3 4 4 4 3 4 4 3 3 3 4 4 4 4 4 4 4 3 3 4 4 4 3 3 4 4 4 4 4 4 4 3 4 4 3 4 4 4 4 4 3 3 4 4 4 4 3 3 4 4 4 3 3 4 4 4 4 4 3 4 3 4 4 4 3 4 4 3 4 4 4 3 3 4 4 4 4 4 4 3 4 3 4 4 3 4 4 3 4 4 4 4 4 4 4 4 4 3 4 4 4 3 4 4 3 3 4 3 3 4 4 4 3 3 4 4 4 4 4 4 3 3 4 4 4 4 4 4 4 4 4 4 4 4 3 3 4 4 4 4 4 3 3 4 4 4 4 4 3 3 3 3 4 3 4 3 3 4 4 4 4 3 3 4 4 4 4 4 4 4 3 3 4 3 3 4 4 4 4 4 3 3 4 4 4 4 4 3 3 4 4 4 4 4 4 3 3 4 3 3 4 4 4 4 3 3 4 4 3 3 3 4 4 4 4 4 4 4 4 4 4 4 3 4 3 3 4 4 4 4 4 4 4 4 4 4 4 4 4 3 4 4 3 3 4 4 4 3 3 4 4 3 3 4 

SCALARS geom_link_id int 1
LOOKUP_TABLE default
17 13 11 10 1 1 1 11 10 10 13 1 10 1 11 1 17 10 11 1 4 1 1 1 13 17 1 1 12 1 17 1 12 1 1 1 10 1 1 1 1 12 1 1 1 1 18 1 1 13 13 10 10 1 1 11 13 13 10 10 1 1 1 10 1 13 12 12 1 1 13 11 10 12 1 1 18 18 1 11 12 1 1 1 1 1 18 17 18 12 1 1 1 1 1 1 1 1 10 1 1 10 1 1 1 11 1 1 11 1 1 1 17 10 1 1 10 1 1 11 1 1 11 1 1 1 11 1 11 18 1 1 18 1 1 1 1 1 1 16 1 13 1 13 12 12 1 12 1 1 11 17 1 1 1 1 1 1 1 1 1 17 1 15 1 1 13 11 13 1 11 12 1 1 12 1 1 18 1 1 18 1 1 3 12 1 12 12 14 1 6 1 1 12 1 1 12 1 1 1 10 1 1 17 10 10 1 1 1 1 1 1 1 18 18 1 1 1 13 13 1 1 1 1 1 1 1 18 1 1 18 1 1 1 1 1 13 13 1 1 1 1 17 11 1 1 1 12 12 1 1 1 1 1 11 1 11 1 1 1 18 1 1 18 1 1 1 11 11 1 1 1 1 1 1 12 1 17 1 1 18 1 1 18 1 1 1 1 1 1 1 1 1 17 1 1 1 17 1 1 10 10 1 10 10 1 1 1 10 10 1 1 1 1 1 1 17 17 1 1 1 1 1 1 1 1 1 1 1 1 13 13 1 1 1 1 1 13 13 1 1 1 1 1 13 13 17 17 1 8 1 13 13 1 1 1 1 12 12 1 1 1 1 1 1 1 11 11 1 11 11 1 1 1 1 1 18 18 1 1 1 1 1 18 18 1 1 1 1 1 1 12 12 1 17 17 1 1 1 1 18 18 1 1 9 18 18 1 1 1 1 1 1 1 1 1 1 1 1 1 17 17 1 1 1 1 1 1 1 1 1 1 1 1 1 7 1 1 17 17 1 1 1 17 17 1 1 2 5 1 

