# vtk DataFile Version 3.0
Generated by GMDS VTK Writer

ASCII
DATASET UNSTRUCTURED_GRID
POINTS 32 float
5 0 0
5 0 -5
10 5 0
-5 5 0
0 5 -5
0 5 0
0 -5 0
0 5 10
0 10 0
-5 0 0
0 0 0
0 0 -5
10 0 0
0 0 10
-5 5 5
0 5 5
0 10 5
10 5 5
0 -5 5
0 0 5
-5 0 5
10 0 5
5 5 0
5 5 -5
5 -5 0
5 5 5
5 10 5
5 10 0
5 5 10
5 0 10
5 0 5
5 -5 5

CELLS 36 180
4 22 0 12 2 
4 11 10 5 4 
4 15 16 8 5 
4 9 10 5 3 
4 5 15 25 22 
4 5 10 0 22 
4 4 5 22 23 
4 14 15 5 3 
4 5 8 27 22 
4 8 16 26 27 
4 10 11 1 0 
4 15 16 26 25 
4 6 10 0 24 
4 1 0 22 23 
4 4 11 1 23 
4 18 19 10 6 
4 20 19 10 9 
4 7 13 19 15 
4 15 19 10 5 
4 14 20 9 3 
4 20 19 15 14 
4 17 21 12 2 
4 22 25 17 2 
4 25 26 27 22 
4 7 15 25 28 
4 13 19 30 29 
4 18 19 30 31 
4 10 19 30 0 
4 0 30 21 12 
4 6 18 31 24 
4 31 30 0 24 
4 7 13 29 28 
4 15 19 30 25 
4 25 30 21 17 
4 28 29 30 25 
4 25 30 0 22 

CELL_TYPES 36
9 
9 
9 
9 
9 
9 
9 
9 
9 
9 
9 
9 
9 
9 
9 
9 
9 
9 
9 
9 
9 
9 
9 
9 
9 
9 
9 
9 
9 
9 
9 
9 
9 
9 
9 
9 
POINT_DATA 32
SCALARS GMDS_ID int 1
LOOKUP_TABLE default
0 1 14 15 19 20 21 22 25 28 29 30 31 34 37 38 39 40 43 44 45 47 48 49 51 52 53 54 55 59 60 61 
SCALARS geom_link_dim int 1
LOOKUP_TABLE default
1 1 1 1 1 1 1 1 1 1 1 1 1 1 1 1 1 1 1 1 1 1 1 1 1 1 1 1 1 1 1 1 
SCALARS geom_link_id int 1
LOOKUP_TABLE default
26 25 21 5 18 1 28 16 4 11 12 19 29 20 6 2 3 22 27 14 13 30 10 17 31 8 7 9 15 24 23 32 


CELL_DATA 36
SCALARS GMDS_ID int 1
LOOKUP_TABLE default
13 15 17 19 21 24 26 28 29 33 40 45 54 59 63 71 73 77 78 80 81 90 92 93 98 108 110 115 116 117 119 120 122 123 124 125 

SCALARS geom_link_dim int 1
LOOKUP_TABLE default
3 3 3 3 4 4 3 3 3 3 3 3 3 3 3 3 3 3 4 3 3 3 3 3 3 3 3 4 3 3 3 3 4 3 3 4 

SCALARS geom_link_id int 1
LOOKUP_TABLE default
21 3 7 27 1 1 12 19 14 8 1 13 5 17 26 24 10 16 1 18 9 23 11 28 4 30 6 1 22 29 2 25 1 20 15 1 

