# vtk DataFile Version 3.0
Generated by GMDS VTK Writer

ASCII
DATASET UNSTRUCTURED_GRID
POINTS 62 float
5 0 0
5 0 -5
10 10 -5
10 -5 -5
-5 -5 10
-5 10 10
10 10 10
10 -5 10
-5 5 -5
-5 5 10
10 5 10
10 5 -5
-5 -5 -8.88178419700125e-16
10 -5 -8.88178419700125e-16
10 5 0
-5 5 0
10 10 -8.88178419700125e-16
-5 10 -8.88178419700125e-16
-8.88178419700125e-16 -5 -5
0 5 -5
0 5 0
0 -5 0
0 5 10
-8.88178419700125e-16 -5 10
-8.88178419700125e-16 10 -5
0 10 0
-8.88178419700125e-16 10 10
-5 -4.44089209850063e-16 -5
-5 0 0
0 0 0
0 0 -5
10 0 0
10 -4.44089209850063e-16 -5
-5 -4.44089209850063e-16 10
0 0 10
10 -4.44089209850063e-16 10
-5 10 5
-5 5 5
-4.44089209850063e-16 5 5
0 10 5
10 5 5
10 10 5
-5 -5 5
0 -5 5
-2.22044604925031e-16 0 5
-5 0 5
10 -5 5
10 0 5
5 5 0
5 5 -5
5 -5 -5
5 -5 0
5 5 5
5 10 5
5 10 0
5 5 10
5 10 10
5 10 -5
5 -5 10
5 0 10
5 0 5
5 -5 5

CELLS 102 510
4 6 10 40 41 
4 49 48 14 11 
4 3 13 31 32 
4 36 37 38 39 
4 27 28 29 30 
4 8 15 20 19 
4 36 39 25 17 
4 27 30 19 8 
4 48 0 31 14 
4 5 26 39 36 
4 30 29 20 19 
4 18 21 29 30 
4 38 39 25 20 
4 22 26 39 38 
4 28 29 20 15 
4 2 11 14 16 
4 20 38 52 48 
4 12 21 29 28 
4 27 28 15 8 
4 20 29 0 48 
4 48 54 16 14 
4 19 20 48 49 
4 37 38 20 15 
4 20 25 54 48 
4 54 53 41 16 
4 9 22 38 37 
4 36 37 15 17 
4 25 39 53 54 
4 52 53 41 40 
4 5 9 37 36 
4 0 1 32 31 
4 15 17 25 20 
4 29 30 1 0 
4 24 19 20 25 
4 5 9 22 26 
4 38 39 53 52 
4 50 51 0 1 
4 50 1 32 3 
4 32 31 14 11 
4 18 30 1 50 
4 51 0 31 13 
4 21 29 0 51 
4 50 51 13 3 
4 4 23 34 33 
4 33 34 22 9 
4 18 21 51 50 
4 1 0 48 49 
4 49 1 32 11 
4 19 30 1 49 
4 41 40 14 16 
4 4 23 43 42 
4 42 43 21 12 
4 23 34 44 43 
4 43 44 29 21 
4 33 34 44 45 
4 45 44 29 28 
4 4 33 45 42 
4 42 45 28 12 
4 42 43 44 45 
4 22 34 44 38 
4 38 44 29 20 
4 9 33 45 37 
4 37 45 28 15 
4 45 44 38 37 
4 7 35 47 46 
4 46 47 31 13 
4 10 35 47 40 
4 40 47 31 14 
4 48 52 40 14 
4 52 53 54 48 
4 22 26 56 55 
4 55 56 6 10 
4 26 39 53 56 
4 56 53 41 6 
4 22 38 52 55 
4 55 52 40 10 
4 55 56 53 52 
4 19 24 57 49 
4 49 57 2 11 
4 24 25 54 57 
4 57 54 16 2 
4 57 49 48 54 
4 23 34 59 58 
4 58 59 35 7 
4 34 44 60 59 
4 59 60 47 35 
4 43 44 60 61 
4 61 60 47 46 
4 23 43 61 58 
4 58 61 46 7 
4 58 59 60 61 
4 29 44 60 0 
4 0 60 47 31 
4 21 43 61 51 
4 51 61 46 13 
4 61 60 0 51 
4 22 34 59 55 
4 55 59 35 10 
4 38 44 60 52 
4 52 60 47 40 
4 55 59 60 52 
4 52 60 0 48 

CELL_TYPES 102
9 
9 
9 
9 
9 
9 
9 
9 
9 
9 
9 
9 
9 
9 
9 
9 
9 
9 
9 
9 
9 
9 
9 
9 
9 
9 
9 
9 
9 
9 
9 
9 
9 
9 
9 
9 
9 
9 
9 
9 
9 
9 
9 
9 
9 
9 
9 
9 
9 
9 
9 
9 
9 
9 
9 
9 
9 
9 
9 
9 
9 
9 
9 
9 
9 
9 
9 
9 
9 
9 
9 
9 
9 
9 
9 
9 
9 
9 
9 
9 
9 
9 
9 
9 
9 
9 
9 
9 
9 
9 
9 
9 
9 
9 
9 
9 
9 
9 
9 
9 
9 
9 
POINT_DATA 62
SCALARS GMDS_ID int 1
LOOKUP_TABLE default
0 1 2 3 4 5 6 7 8 9 10 11 12 13 14 15 16 17 18 19 20 21 22 23 24 25 26 27 28 29 30 31 32 33 34 35 36 37 38 39 40 41 42 43 44 45 46 47 48 49 50 51 52 53 54 55 56 57 58 59 60 61 
SCALARS geom_link_dim int 1
LOOKUP_TABLE default
0 1 0 0 0 0 0 0 0 0 0 0 0 0 1 1 0 0 0 1 1 1 1 0 0 1 0 0 1 1 1 1 0 0 1 0 0 1 0 1 1 0 0 1 0 1 0 1 0 1 0 1 0 1 1 1 0 0 0 1 0 1 
SCALARS geom_link_id int 1
LOOKUP_TABLE default
-1 25 -1 -1 -1 -1 -1 -1 -1 -1 -1 -1 -1 -1 21 5 -1 -1 -1 18 1 28 16 -1 -1 4 -1 -1 11 12 19 29 -1 -1 20 -1 -1 6 0 3 22 -1 -1 27 0 13 -1 30 -1 17 -1 31 -1 7 9 15 -1 -1 -1 24 -1 32 


CELL_DATA 102
SCALARS GMDS_ID int 1
LOOKUP_TABLE default
0 2 3 6 9 10 11 12 13 14 15 16 17 18 19 20 21 22 23 24 25 26 28 29 30 31 32 33 34 35 36 38 40 42 43 45 46 47 48 52 53 54 55 56 57 58 59 60 63 64 68 69 70 71 72 73 74 75 76 77 78 79 80 81 86 87 89 90 92 93 94 95 96 97 98 99 100 101 102 103 104 105 106 107 108 109 110 111 112 113 114 115 116 117 118 119 120 121 122 123 124 125 

SCALARS geom_link_dim int 1
LOOKUP_TABLE default
0 0 0 0 0 0 0 0 0 0 0 0 0 0 0 0 0 0 0 0 0 0 0 0 0 0 0 0 0 0 0 0 0 0 0 0 0 0 0 0 0 0 0 0 0 0 0 0 0 0 0 0 0 0 0 0 0 0 0 0 0 0 0 0 0 0 0 0 0 0 0 0 0 0 0 0 0 0 0 0 0 0 0 0 0 0 0 0 0 0 0 0 0 0 0 0 0 0 0 0 0 0 

SCALARS geom_link_id int 1
LOOKUP_TABLE default
0 -1 0 0 0 0 0 0 -1 0 0 0 0 0 0 0 -1 0 0 -1 -1 -1 0 -1 -1 0 0 -1 -1 0 -1 0 -1 0 0 -1 -1 -1 0 -1 -1 -1 -1 0 0 -1 -1 -1 -1 0 0 0 0 0 0 0 0 0 0 0 0 0 0 0 0 0 0 0 -1 -1 -1 -1 -1 -1 -1 -1 -1 -1 -1 -1 -1 -1 -1 -1 -1 -1 -1 -1 -1 -1 -1 -1 -1 -1 -1 -1 -1 -1 -1 -1 -1 -1 

