# vtk DataFile Version 3.0
Generated by GMDS VTK Writer

ASCII
DATASET UNSTRUCTURED_GRID
POINTS 47 float
5 0 0
5 0 -5
10 10 -5
-5 -5 10
10 -5 10
-5 5 10
10 5 10
10 5 -5
-5 -5 -8.88178419700125e-16
10 5 0
-5 5 0
10 10 -8.88178419700125e-16
0 5 -5
0 5 0
0 -5 0
0 5 10
-8.88178419700125e-16 -5 10
0 10 0
-5 0 0
0 0 0
0 0 -5
10 0 0
-5 -4.44089209850063e-16 10
0 0 10
10 -4.44089209850063e-16 10
-5 5 5
0 5 5
0 10 5
10 5 5
-5 -5 5
0 -5 5
0 0 5
-5 0 5
10 -5 5
10 0 5
5 5 0
5 5 -5
5 -5 0
5 5 5
5 10 5
5 10 0
5 5 10
5 10 -5
5 -5 10
5 0 10
5 0 5
5 -5 5

CELLS 63 315
4 36 35 9 7 
4 35 0 21 9 
4 20 19 13 12 
4 26 27 17 13 
4 18 19 13 10 
4 2 7 9 11 
4 13 26 38 35 
4 8 14 19 18 
4 13 19 0 35 
4 35 40 11 9 
4 12 13 35 36 
4 25 26 13 10 
4 13 17 40 35 
4 5 15 26 25 
4 17 27 39 40 
4 19 20 1 0 
4 26 27 39 38 
4 14 19 0 37 
4 3 16 23 22 
4 22 23 15 5 
4 1 0 35 36 
4 12 20 1 36 
4 3 16 30 29 
4 29 30 14 8 
4 16 23 31 30 
4 30 31 19 14 
4 22 23 31 32 
4 32 31 19 18 
4 3 22 32 29 
4 29 32 18 8 
4 29 30 31 32 
4 15 23 31 26 
4 26 31 19 13 
4 5 22 32 25 
4 25 32 18 10 
4 32 31 26 25 
4 4 24 34 33 
4 6 24 34 28 
4 28 34 21 9 
4 35 38 28 9 
4 38 39 40 35 
4 15 26 38 41 
4 41 38 28 6 
4 36 42 2 7 
4 42 40 11 2 
4 42 36 35 40 
4 43 44 24 4 
4 23 31 45 44 
4 44 45 34 24 
4 30 31 45 46 
4 46 45 34 33 
4 43 46 33 4 
4 43 44 45 46 
4 19 31 45 0 
4 0 45 34 21 
4 14 30 46 37 
4 46 45 0 37 
4 15 23 44 41 
4 41 44 24 6 
4 26 31 45 38 
4 38 45 34 28 
4 41 44 45 38 
4 38 45 0 35 

CELL_TYPES 63
9 
9 
9 
9 
9 
9 
9 
9 
9 
9 
9 
9 
9 
9 
9 
9 
9 
9 
9 
9 
9 
9 
9 
9 
9 
9 
9 
9 
9 
9 
9 
9 
9 
9 
9 
9 
9 
9 
9 
9 
9 
9 
9 
9 
9 
9 
9 
9 
9 
9 
9 
9 
9 
9 
9 
9 
9 
9 
9 
9 
9 
9 
9 
POINT_DATA 47
SCALARS GMDS_ID int 1
LOOKUP_TABLE default
0 1 2 4 7 9 10 11 12 14 15 16 19 20 21 22 23 25 28 29 30 31 33 34 35 37 38 39 40 42 43 44 45 46 47 48 49 51 52 53 54 55 57 58 59 60 61 
SCALARS geom_link_dim int 1
LOOKUP_TABLE default
1 1 0 0 0 0 0 0 0 1 1 0 1 1 1 1 0 1 1 1 1 1 0 1 0 1 1 1 1 0 1 1 1 0 1 1 1 1 1 1 1 1 0 0 1 1 1 
SCALARS geom_link_id int 1
LOOKUP_TABLE default
26 25 -1 -1 -1 -1 -1 -1 -1 21 5 -1 18 1 28 16 -1 4 11 12 19 29 -1 20 -1 6 2 3 22 -1 27 14 13 -1 30 10 17 31 8 7 9 15 -1 -1 24 23 32 


CELL_DATA 63
SCALARS GMDS_ID int 1
LOOKUP_TABLE default
2 13 15 17 19 20 21 22 24 25 26 28 29 31 33 40 45 54 56 57 59 63 68 69 70 71 72 73 74 75 76 77 78 79 80 81 86 89 90 92 93 98 99 102 104 105 107 108 109 110 111 113 114 115 116 117 119 120 121 122 123 124 125 

SCALARS geom_link_dim int 1
LOOKUP_TABLE default
0 0 0 0 0 0 0 0 0 0 0 0 0 0 0 0 0 0 0 0 0 0 0 0 0 0 0 0 0 0 0 0 0 0 0 0 0 0 0 0 0 0 0 0 0 0 0 0 0 0 0 0 0 0 0 0 0 0 0 0 0 0 0 

SCALARS geom_link_id int 1
LOOKUP_TABLE default
0 0 0 0 0 0 0 0 0 0 0 0 0 0 0 0 0 0 0 0 0 0 0 0 0 0 0 0 0 0 0 0 0 0 0 0 0 0 0 0 0 0 0 0 0 0 0 0 0 0 0 0 0 0 0 0 0 0 0 0 0 0 0 

