# vtk DataFile Version 3.0
Generated by GMDS VTK Writer

ASCII
DATASET UNSTRUCTURED_GRID
POINTS 37 float
5 0 0
5 0 -5
10 -5 10
10 5 10
10 5 0
-5 5 0
0 5 -5
0 5 0
0 -5 0
0 5 10
0 10 0
-5 0 0
0 0 0
0 0 -5
10 0 0
0 0 10
10 -4.44089209850063e-16 10
-5 5 5
0 5 5
0 10 5
10 5 5
0 -5 5
0 0 5
-5 0 5
10 -5 5
10 0 5
5 5 0
5 5 -5
5 -5 0
5 5 5
5 10 5
5 10 0
5 5 10
5 -5 10
5 0 10
5 0 5
5 -5 5

CELLS 45 225
4 26 0 14 4 
4 13 12 7 6 
4 18 19 10 7 
4 11 12 7 5 
4 7 18 29 26 
4 7 12 0 26 
4 6 7 26 27 
4 17 18 7 5 
4 7 10 31 26 
4 10 19 30 31 
4 12 13 1 0 
4 18 19 30 29 
4 8 12 0 28 
4 1 0 26 27 
4 6 13 1 27 
4 21 22 12 8 
4 23 22 12 11 
4 9 15 22 18 
4 18 22 12 7 
4 17 23 11 5 
4 23 22 18 17 
4 2 16 25 24 
4 3 16 25 20 
4 20 25 14 4 
4 26 29 20 4 
4 29 30 31 26 
4 9 18 29 32 
4 32 29 20 3 
4 33 34 16 2 
4 15 22 35 34 
4 34 35 25 16 
4 21 22 35 36 
4 36 35 25 24 
4 33 36 24 2 
4 33 34 35 36 
4 12 22 35 0 
4 0 35 25 14 
4 8 21 36 28 
4 36 35 0 28 
4 9 15 34 32 
4 32 34 16 3 
4 18 22 35 29 
4 29 35 25 20 
4 32 34 35 29 
4 29 35 0 26 

CELL_TYPES 45
9 
9 
9 
9 
9 
9 
9 
9 
9 
9 
9 
9 
9 
9 
9 
9 
9 
9 
9 
9 
9 
9 
9 
9 
9 
9 
9 
9 
9 
9 
9 
9 
9 
9 
9 
9 
9 
9 
9 
9 
9 
9 
9 
9 
9 
POINT_DATA 37
SCALARS GMDS_ID int 1
LOOKUP_TABLE default
0 1 7 10 14 15 19 20 21 22 25 28 29 30 31 34 35 37 38 39 40 43 44 45 46 47 48 49 51 52 53 54 55 58 59 60 61 
SCALARS geom_link_dim int 1
LOOKUP_TABLE default
1 1 0 0 1 1 1 1 1 1 1 1 1 1 1 1 0 1 1 1 1 1 1 1 0 1 1 1 1 1 1 1 1 0 1 1 1 
SCALARS geom_link_id int 1
LOOKUP_TABLE default
26 25 -1 -1 21 5 18 1 28 16 4 11 12 19 29 20 -1 6 2 3 22 27 14 13 -1 30 10 17 31 8 7 9 15 -1 24 23 32 


CELL_DATA 45
SCALARS GMDS_ID int 1
LOOKUP_TABLE default
13 15 17 19 21 24 26 28 29 33 40 45 54 59 63 71 73 77 78 80 81 86 89 90 92 93 98 99 107 108 109 110 111 113 114 115 116 117 119 120 121 122 123 124 125 

SCALARS geom_link_dim int 1
LOOKUP_TABLE default
0 0 0 0 0 0 0 0 0 0 0 0 0 0 0 0 0 0 0 0 0 0 0 0 0 0 0 0 0 0 0 0 0 0 0 0 0 0 0 0 0 0 0 0 0 

SCALARS geom_link_id int 1
LOOKUP_TABLE default
0 0 0 0 0 0 0 0 0 0 0 0 0 0 0 0 0 0 0 0 0 0 0 0 0 0 0 0 0 0 0 0 0 0 0 0 0 0 0 0 0 0 0 0 0 

