# vtk DataFile Version 3.0
Generated by GMDS VTK Writer

ASCII
DATASET UNSTRUCTURED_GRID
POINTS 39 float
5 0 0
5 0 -5
10 -5 10
10 5 10
-5 -5 -8.88178419700125e-16
10 5 0
-5 5 0
0 5 -5
0 5 0
0 -5 0
0 5 10
0 10 0
-5 0 0
0 0 0
0 0 -5
10 0 0
0 0 10
10 -4.44089209850063e-16 10
-5 5 5
0 5 5
0 10 5
10 5 5
-5 -5 5
0 -5 5
0 0 5
-5 0 5
10 -5 5
10 0 5
5 5 0
5 5 -5
5 -5 0
5 5 5
5 10 5
5 10 0
5 5 10
5 -5 10
5 0 10
5 0 5
5 -5 5

CELLS 49 245
4 28 0 15 5 
4 14 13 8 7 
4 19 20 11 8 
4 12 13 8 6 
4 8 19 31 28 
4 4 9 13 12 
4 8 13 0 28 
4 7 8 28 29 
4 18 19 8 6 
4 8 11 33 28 
4 11 20 32 33 
4 13 14 1 0 
4 19 20 32 31 
4 9 13 0 30 
4 1 0 28 29 
4 7 14 1 29 
4 22 23 9 4 
4 23 24 13 9 
4 25 24 13 12 
4 22 25 12 4 
4 22 23 24 25 
4 10 16 24 19 
4 19 24 13 8 
4 18 25 12 6 
4 25 24 19 18 
4 2 17 27 26 
4 3 17 27 21 
4 21 27 15 5 
4 28 31 21 5 
4 31 32 33 28 
4 10 19 31 34 
4 34 31 21 3 
4 35 36 17 2 
4 16 24 37 36 
4 36 37 27 17 
4 23 24 37 38 
4 38 37 27 26 
4 35 38 26 2 
4 35 36 37 38 
4 13 24 37 0 
4 0 37 27 15 
4 9 23 38 30 
4 38 37 0 30 
4 10 16 36 34 
4 34 36 17 3 
4 19 24 37 31 
4 31 37 27 21 
4 34 36 37 31 
4 31 37 0 28 

CELL_TYPES 49
9 
9 
9 
9 
9 
9 
9 
9 
9 
9 
9 
9 
9 
9 
9 
9 
9 
9 
9 
9 
9 
9 
9 
9 
9 
9 
9 
9 
9 
9 
9 
9 
9 
9 
9 
9 
9 
9 
9 
9 
9 
9 
9 
9 
9 
9 
9 
9 
9 
POINT_DATA 39
SCALARS GMDS_ID int 1
LOOKUP_TABLE default
0 1 7 10 12 14 15 19 20 21 22 25 28 29 30 31 34 35 37 38 39 40 42 43 44 45 46 47 48 49 51 52 53 54 55 58 59 60 61 
SCALARS geom_link_dim int 1
LOOKUP_TABLE default
1 1 0 0 0 1 1 1 1 1 1 1 1 1 1 1 1 0 1 1 1 1 0 1 1 1 0 1 1 1 1 1 1 1 1 0 1 1 1 
SCALARS geom_link_id int 1
LOOKUP_TABLE default
26 25 -1 -1 -1 21 5 18 1 28 16 4 11 12 19 29 20 -1 6 2 3 22 -1 27 14 13 -1 30 10 17 31 8 7 9 15 -1 24 23 32 


CELL_DATA 49
SCALARS GMDS_ID int 1
LOOKUP_TABLE default
13 15 17 19 21 22 24 26 28 29 33 40 45 54 59 63 69 71 73 75 76 77 78 80 81 86 89 90 92 93 98 99 107 108 109 110 111 113 114 115 116 117 119 120 121 122 123 124 125 

SCALARS geom_link_dim int 1
LOOKUP_TABLE default
0 0 0 0 0 0 0 0 0 0 0 0 0 0 0 0 0 0 0 0 0 0 0 0 0 0 0 0 0 0 0 0 0 0 0 0 0 0 0 0 0 0 0 0 0 0 0 0 0 

SCALARS geom_link_id int 1
LOOKUP_TABLE default
0 0 0 0 0 0 0 0 0 0 0 0 0 0 0 0 0 0 0 0 0 0 0 0 0 0 0 0 0 0 0 0 0 0 0 0 0 0 0 0 0 0 0 0 0 0 0 0 0 

