# vtk DataFile Version 3.0
Generated by GMDS VTK Writer

ASCII
DATASET UNSTRUCTURED_GRID
POINTS 40 float
0 0 0
0 10 0
10 10 0
10 0 0
0 0 10
0 10 10
10 10 10
10 0 10
0 1 0
0 1 10
10 1 10
10 1 0
0 0 1
10 0 1
10 1 1
0 1 1
10 10 1
0 10 1
0 6 0
10 6 0
10 6 1
0 6 1
10 6 10
0 6 10
0 0 8
10 0 8
10 1 8
0 1 8
10 6 8
0 6 8
10 10 8
0 10 8
0 4 8
10 4 8
10 4 1
0 4 1
0 4 0
10 4 0
0 4 10
10 4 10

CELLS 55 275
4 8 11 37 36 
4 3 11 14 13 
4 32 33 34 35 
4 20 21 17 16 
4 0 3 13 12 
4 19 20 16 2 
4 4 7 10 9 
4 4 9 27 24 
4 18 19 2 1 
4 0 3 11 8 
4 27 26 14 15 
4 8 11 14 15 
4 35 32 29 21 
4 0 8 15 12 
4 15 27 32 35 
4 12 13 14 15 
4 9 10 26 27 
4 25 26 14 13 
4 1 2 16 17 
4 34 35 21 20 
4 7 10 26 25 
4 24 25 13 12 
4 4 7 25 24 
4 18 21 17 1 
4 18 19 20 21 
4 14 15 35 34 
4 34 33 28 20 
4 23 22 6 5 
4 14 26 33 34 
4 33 32 29 28 
4 26 27 32 33 
4 24 27 15 12 
4 24 25 26 27 
4 22 23 29 28 
4 28 29 21 20 
4 6 22 28 30 
4 30 28 20 16 
4 5 6 30 31 
4 31 30 16 17 
4 5 23 29 31 
4 31 29 21 17 
4 29 28 30 31 
4 36 37 19 18 
4 11 14 34 37 
4 37 34 20 19 
4 8 15 35 36 
4 36 35 21 18 
4 36 37 34 35 
4 9 10 39 38 
4 38 39 22 23 
4 10 26 33 39 
4 39 33 28 22 
4 9 27 32 38 
4 38 32 29 23 
4 38 39 33 32 

CELL_TYPES 55
9 
9 
9 
9 
9 
9 
9 
9 
9 
9 
9 
9 
9 
9 
9 
9 
9 
9 
9 
9 
9 
9 
9 
9 
9 
9 
9 
9 
9 
9 
9 
9 
9 
9 
9 
9 
9 
9 
9 
9 
9 
9 
9 
9 
9 
9 
9 
9 
9 
9 
9 
9 
9 
9 
9 
POINT_DATA 40
SCALARS GMDS_ID int 1
LOOKUP_TABLE default
0 1 2 3 4 5 6 7 8 9 10 11 12 13 14 15 16 17 18 19 20 21 22 23 24 25 26 27 28 29 30 31 32 33 34 35 36 37 38 39 
SCALARS geom_link_dim int 1
LOOKUP_TABLE default
1 1 1 1 1 1 1 1 2 2 2 2 2 2 3 3 2 2 2 2 3 3 2 2 2 2 3 3 3 3 2 2 3 3 3 3 2 2 2 2 
SCALARS geom_link_id int 1
LOOKUP_TABLE default
10 12 16 13 9 11 15 14 19 29 26 31 21 33 13 10 27 32 19 31 13 10 26 29 21 33 13 10 13 10 27 32 10 13 13 10 19 31 29 26 


CELL_DATA 55
SCALARS GMDS_ID int 1
LOOKUP_TABLE default
0 1 3 4 5 7 8 9 11 12 13 15 16 17 18 19 20 21 22 23 24 25 26 27 28 29 30 32 33 34 35 36 37 40 41 45 46 47 48 49 50 51 52 53 54 55 56 57 58 59 60 61 62 63 64 

SCALARS geom_link_dim int 1
LOOKUP_TABLE default
0 0 0 0 0 0 0 0 0 0 0 0 0 0 0 0 0 0 0 0 0 0 0 0 0 0 0 0 0 0 0 0 0 0 0 0 0 0 0 0 0 0 0 0 0 0 0 0 0 0 0 0 0 0 0 

SCALARS geom_link_id int 1
LOOKUP_TABLE default
-1 0 -1 0 0 0 0 0 0 0 0 0 -1 0 -1 0 0 0 0 -1 0 0 0 0 0 -1 -1 0 -1 -1 -1 0 0 0 0 0 0 0 0 0 0 0 -1 -1 -1 -1 -1 -1 -1 -1 -1 -1 -1 -1 -1 

