# vtk DataFile Version 3.0
Generated by GMDS VTK Writer

ASCII
DATASET UNSTRUCTURED_GRID
POINTS 49 float
5 0 0
5 0 -5
10 10 -5
-5 -5 10
10 -5 10
-5 5 10
10 5 10
10 5 -5
-5 -5 -8.88178419700125e-16
10 5 0
-5 5 0
10 10 -8.88178419700125e-16
-8.88178419700125e-16 -5 -5
0 5 -5
0 5 0
0 -5 0
0 5 10
-8.88178419700125e-16 -5 10
0 10 0
-5 0 0
0 0 0
0 0 -5
10 0 0
-5 -4.44089209850063e-16 10
0 0 10
10 -4.44089209850063e-16 10
-5 5 5
0 5 5
0 10 5
10 5 5
-5 -5 5
0 -5 5
0 0 5
-5 0 5
10 -5 5
10 0 5
5 5 0
5 5 -5
5 -5 -5
5 -5 0
5 5 5
5 10 5
5 10 0
5 5 10
5 10 -5
5 -5 10
5 0 10
5 0 5
5 -5 5

CELLS 67 335
4 37 36 9 7 
4 36 0 22 9 
4 21 20 14 13 
4 12 15 20 21 
4 27 28 18 14 
4 19 20 14 10 
4 2 7 9 11 
4 14 27 40 36 
4 8 15 20 19 
4 14 20 0 36 
4 36 42 11 9 
4 13 14 36 37 
4 26 27 14 10 
4 14 18 42 36 
4 5 16 27 26 
4 18 28 41 42 
4 20 21 1 0 
4 27 28 41 40 
4 38 39 0 1 
4 12 21 1 38 
4 15 20 0 39 
4 3 17 24 23 
4 23 24 16 5 
4 12 15 39 38 
4 1 0 36 37 
4 13 21 1 37 
4 3 17 31 30 
4 30 31 15 8 
4 17 24 32 31 
4 31 32 20 15 
4 23 24 32 33 
4 33 32 20 19 
4 3 23 33 30 
4 30 33 19 8 
4 30 31 32 33 
4 16 24 32 27 
4 27 32 20 14 
4 5 23 33 26 
4 26 33 19 10 
4 33 32 27 26 
4 4 25 35 34 
4 6 25 35 29 
4 29 35 22 9 
4 36 40 29 9 
4 40 41 42 36 
4 16 27 40 43 
4 43 40 29 6 
4 37 44 2 7 
4 44 42 11 2 
4 44 37 36 42 
4 45 46 25 4 
4 24 32 47 46 
4 46 47 35 25 
4 31 32 47 48 
4 48 47 35 34 
4 45 48 34 4 
4 45 46 47 48 
4 20 32 47 0 
4 0 47 35 22 
4 15 31 48 39 
4 48 47 0 39 
4 16 24 46 43 
4 43 46 25 6 
4 27 32 47 40 
4 40 47 35 29 
4 43 46 47 40 
4 40 47 0 36 

CELL_TYPES 67
9 
9 
9 
9 
9 
9 
9 
9 
9 
9 
9 
9 
9 
9 
9 
9 
9 
9 
9 
9 
9 
9 
9 
9 
9 
9 
9 
9 
9 
9 
9 
9 
9 
9 
9 
9 
9 
9 
9 
9 
9 
9 
9 
9 
9 
9 
9 
9 
9 
9 
9 
9 
9 
9 
9 
9 
9 
9 
9 
9 
9 
9 
9 
9 
9 
9 
9 
POINT_DATA 49
SCALARS GMDS_ID int 1
LOOKUP_TABLE default
0 1 2 4 7 9 10 11 12 14 15 16 18 19 20 21 22 23 25 28 29 30 31 33 34 35 37 38 39 40 42 43 44 45 46 47 48 49 50 51 52 53 54 55 57 58 59 60 61 
SCALARS geom_link_dim int 1
LOOKUP_TABLE default
1 1 0 0 0 0 0 0 0 1 1 0 0 1 1 1 1 0 1 1 1 1 1 0 1 0 1 1 1 1 0 1 1 1 0 1 1 1 0 1 1 1 1 1 0 0 1 1 1 
SCALARS geom_link_id int 1
LOOKUP_TABLE default
26 25 -1 -1 -1 -1 -1 -1 -1 21 5 -1 -1 18 1 28 16 -1 4 11 12 19 29 -1 20 -1 6 2 3 22 -1 27 14 13 -1 30 10 17 -1 31 8 7 9 15 -1 -1 24 23 32 


CELL_DATA 67
SCALARS GMDS_ID int 1
LOOKUP_TABLE default
2 13 15 16 17 19 20 21 22 24 25 26 28 29 31 33 40 45 46 52 54 56 57 58 59 63 68 69 70 71 72 73 74 75 76 77 78 79 80 81 86 89 90 92 93 98 99 102 104 105 107 108 109 110 111 113 114 115 116 117 119 120 121 122 123 124 125 

SCALARS geom_link_dim int 1
LOOKUP_TABLE default
0 0 0 0 0 0 0 0 0 0 0 0 0 0 0 0 0 0 0 0 0 0 0 0 0 0 0 0 0 0 0 0 0 0 0 0 0 0 0 0 0 0 0 0 0 0 0 0 0 0 0 0 0 0 0 0 0 0 0 0 0 0 0 0 0 0 0 

SCALARS geom_link_id int 1
LOOKUP_TABLE default
0 0 0 0 0 0 0 0 0 0 0 0 0 0 0 0 0 0 0 0 0 0 0 0 0 0 0 0 0 0 0 0 0 0 0 0 0 0 0 0 0 0 0 0 0 0 0 0 0 0 0 0 0 0 0 0 0 0 0 0 0 0 0 0 0 0 0 

