# vtk DataFile Version 3.0
Generated by GMDS VTK Writer

ASCII
DATASET UNSTRUCTURED_GRID
POINTS 46 float
10 10 -5
10 -5 -5
-5 -5 10
-5 10 10
10 10 10
10 -5 10
-5 5 -5
-5 5 10
10 5 10
10 5 -5
-5 -5 -8.88178419700125e-16
10 -5 -8.88178419700125e-16
10 5 0
-5 5 0
10 10 -8.88178419700125e-16
-5 10 -8.88178419700125e-16
-8.88178419700125e-16 -5 -5
0 5 -5
0 5 0
0 -5 0
0 5 10
-8.88178419700125e-16 -5 10
-8.88178419700125e-16 10 -5
0 10 0
-8.88178419700125e-16 10 10
-5 -4.44089209850063e-16 -5
-5 0 0
0 0 0
0 0 -5
10 0 0
10 -4.44089209850063e-16 -5
-5 -4.44089209850063e-16 10
0 0 10
10 -4.44089209850063e-16 10
-5 10 5
-5 5 5
-4.44089209850063e-16 5 5
0 10 5
10 5 5
10 10 5
-5 -5 5
0 -5 5
-2.22044604925031e-16 0 5
-5 0 5
10 -5 5
10 0 5

CELLS 69 345
4 4 8 38 39 
4 38 36 18 12 
4 1 11 29 30 
4 8 20 36 38 
4 29 27 18 12 
4 34 35 36 37 
4 17 18 12 9 
4 11 19 27 29 
4 25 26 27 28 
4 6 13 18 17 
4 34 37 23 15 
4 25 28 17 6 
4 3 24 37 34 
4 28 27 18 17 
4 16 19 27 28 
4 36 37 23 18 
4 20 24 37 36 
4 26 27 18 13 
4 0 9 12 14 
4 10 19 27 26 
4 25 26 13 6 
4 16 19 11 1 
4 35 36 18 13 
4 7 20 36 35 
4 34 35 13 15 
4 3 7 35 34 
4 22 17 9 0 
4 13 15 23 18 
4 18 23 14 12 
4 22 23 14 0 
4 22 17 18 23 
4 3 7 20 24 
4 24 20 8 4 
4 30 29 12 9 
4 1 16 28 30 
4 30 28 17 9 
4 28 27 29 30 
4 2 21 32 31 
4 31 32 20 7 
4 5 21 32 33 
4 33 32 20 8 
4 39 38 12 14 
4 4 24 37 39 
4 39 37 23 14 
4 37 36 38 39 
4 2 21 41 40 
4 40 41 19 10 
4 21 32 42 41 
4 41 42 27 19 
4 31 32 42 43 
4 43 42 27 26 
4 2 31 43 40 
4 40 43 26 10 
4 40 41 42 43 
4 20 32 42 36 
4 36 42 27 18 
4 7 31 43 35 
4 35 43 26 13 
4 43 42 36 35 
4 5 21 41 44 
4 44 41 19 11 
4 32 33 45 42 
4 42 45 29 27 
4 5 33 45 44 
4 44 45 29 11 
4 44 41 42 45 
4 8 33 45 38 
4 38 45 29 12 
4 45 42 36 38 

CELL_TYPES 69
9 
9 
9 
9 
9 
9 
9 
9 
9 
9 
9 
9 
9 
9 
9 
9 
9 
9 
9 
9 
9 
9 
9 
9 
9 
9 
9 
9 
9 
9 
9 
9 
9 
9 
9 
9 
9 
9 
9 
9 
9 
9 
9 
9 
9 
9 
9 
9 
9 
9 
9 
9 
9 
9 
9 
9 
9 
9 
9 
9 
9 
9 
9 
9 
9 
9 
9 
9 
9 
POINT_DATA 46
SCALARS GMDS_ID int 1
LOOKUP_TABLE default
2 3 4 5 6 7 8 9 10 11 12 13 14 15 16 17 18 19 20 21 22 23 24 25 26 27 28 29 30 31 32 33 34 35 36 37 38 39 40 41 42 43 44 45 46 47 
SCALARS geom_link_dim int 1
LOOKUP_TABLE default
0 0 0 0 0 0 0 0 0 0 0 0 1 1 0 0 0 1 1 1 1 0 0 1 0 0 1 1 1 1 0 0 1 0 0 1 0 1 1 0 0 1 0 1 0 1 
SCALARS geom_link_id int 1
LOOKUP_TABLE default
-1 -1 -1 -1 -1 -1 -1 -1 -1 -1 -1 -1 21 5 -1 -1 -1 18 1 28 16 -1 -1 4 -1 -1 11 12 19 29 -1 -1 20 -1 -1 6 0 3 22 -1 -1 27 0 13 -1 30 


CELL_DATA 69
SCALARS GMDS_ID int 1
LOOKUP_TABLE default
0 1 3 4 5 6 7 8 9 10 11 12 14 15 16 17 18 19 20 22 23 27 28 31 32 35 37 38 39 41 42 43 44 48 49 50 51 56 57 61 62 64 65 66 67 68 69 70 71 72 73 74 75 76 77 78 79 80 81 82 83 84 85 86 87 88 89 90 91 

SCALARS geom_link_dim int 1
LOOKUP_TABLE default
0 0 0 0 0 0 0 0 0 0 0 0 0 0 0 0 0 0 0 0 0 0 0 0 0 0 0 0 0 0 0 0 0 0 0 0 0 0 0 0 0 0 0 0 0 0 0 0 0 0 0 0 0 0 0 0 0 0 0 0 0 0 0 0 0 0 0 0 0 

SCALARS geom_link_id int 1
LOOKUP_TABLE default
0 0 0 0 0 0 0 0 0 0 0 0 0 0 0 0 0 0 0 0 0 0 0 0 0 0 0 0 0 0 0 0 0 0 0 0 0 0 0 0 0 0 0 0 0 0 0 0 0 0 0 0 0 0 0 0 0 0 0 0 0 0 0 0 0 0 0 0 0 

