# vtk DataFile Version 3.0
Generated by GMDS VTK Writer

ASCII
DATASET UNSTRUCTURED_GRID
POINTS 54 float
5 0 0
5 0 -5
10 10 -5
-5 -5 10
10 -5 10
-5 5 10
10 5 10
10 5 -5
-5 -5 -8.88178419700125e-16
10 -5 -8.88178419700125e-16
10 5 0
-5 5 0
10 10 -8.88178419700125e-16
-8.88178419700125e-16 -5 -5
0 5 -5
0 5 0
0 -5 0
0 5 10
-8.88178419700125e-16 -5 10
-8.88178419700125e-16 10 -5
0 10 0
-8.88178419700125e-16 10 10
-5 0 0
0 0 0
0 0 -5
10 0 0
-5 -4.44089209850063e-16 10
0 0 10
10 -4.44089209850063e-16 10
-5 5 5
0 5 5
0 10 5
10 5 5
10 10 5
-5 -5 5
0 -5 5
-2.22044604925031e-16 0 5
-5 0 5
10 -5 5
10 0 5
5 5 0
5 5 -5
5 -5 -5
5 -5 0
5 5 5
5 10 5
5 10 0
5 5 10
5 10 10
5 10 -5
5 -5 10
5 0 10
5 0 5
5 -5 5

CELLS 82 410
4 41 40 10 7 
4 40 0 25 10 
4 24 23 15 14 
4 13 16 23 24 
4 30 31 20 15 
4 17 21 31 30 
4 22 23 15 11 
4 2 7 10 12 
4 15 30 44 40 
4 8 16 23 22 
4 15 23 0 40 
4 40 46 12 10 
4 14 15 40 41 
4 29 30 15 11 
4 15 20 46 40 
4 46 45 33 12 
4 5 17 30 29 
4 20 31 45 46 
4 44 45 33 32 
4 23 24 1 0 
4 19 14 15 20 
4 30 31 45 44 
4 42 43 0 1 
4 13 24 1 42 
4 43 0 25 9 
4 16 23 0 43 
4 3 18 27 26 
4 26 27 17 5 
4 13 16 43 42 
4 1 0 40 41 
4 14 24 1 41 
4 33 32 10 12 
4 3 18 35 34 
4 34 35 16 8 
4 18 27 36 35 
4 35 36 23 16 
4 26 27 36 37 
4 37 36 23 22 
4 3 26 37 34 
4 34 37 22 8 
4 34 35 36 37 
4 17 27 36 30 
4 30 36 23 15 
4 5 26 37 29 
4 29 37 22 11 
4 37 36 30 29 
4 4 28 39 38 
4 38 39 25 9 
4 6 28 39 32 
4 32 39 25 10 
4 40 44 32 10 
4 44 45 46 40 
4 17 21 48 47 
4 21 31 45 48 
4 17 30 44 47 
4 47 44 32 6 
4 47 48 45 44 
4 14 19 49 41 
4 41 49 2 7 
4 19 20 46 49 
4 49 46 12 2 
4 49 41 40 46 
4 18 27 51 50 
4 50 51 28 4 
4 27 36 52 51 
4 51 52 39 28 
4 35 36 52 53 
4 53 52 39 38 
4 18 35 53 50 
4 50 53 38 4 
4 50 51 52 53 
4 23 36 52 0 
4 0 52 39 25 
4 16 35 53 43 
4 43 53 38 9 
4 53 52 0 43 
4 17 27 51 47 
4 47 51 28 6 
4 30 36 52 44 
4 44 52 39 32 
4 47 51 52 44 
4 44 52 0 40 

CELL_TYPES 82
9 
9 
9 
9 
9 
9 
9 
9 
9 
9 
9 
9 
9 
9 
9 
9 
9 
9 
9 
9 
9 
9 
9 
9 
9 
9 
9 
9 
9 
9 
9 
9 
9 
9 
9 
9 
9 
9 
9 
9 
9 
9 
9 
9 
9 
9 
9 
9 
9 
9 
9 
9 
9 
9 
9 
9 
9 
9 
9 
9 
9 
9 
9 
9 
9 
9 
9 
9 
9 
9 
9 
9 
9 
9 
9 
9 
9 
9 
9 
9 
9 
9 
POINT_DATA 54
SCALARS GMDS_ID int 1
LOOKUP_TABLE default
0 1 2 4 7 9 10 11 12 13 14 15 16 18 19 20 21 22 23 24 25 26 28 29 30 31 33 34 35 37 38 39 40 41 42 43 44 45 46 47 48 49 50 51 52 53 54 55 56 57 58 59 60 61 
SCALARS geom_link_dim int 1
LOOKUP_TABLE default
1 1 0 0 0 0 0 0 0 0 1 1 0 0 1 1 1 1 0 0 1 0 1 1 1 1 0 1 0 1 1 1 1 0 0 1 0 1 0 1 1 1 0 1 1 1 1 1 0 0 0 1 0 1 
SCALARS geom_link_id int 1
LOOKUP_TABLE default
26 25 -1 -1 -1 -1 -1 -1 -1 -1 21 5 -1 -1 18 1 28 16 -1 -1 4 -1 11 12 19 29 -1 20 -1 6 2 3 22 -1 -1 27 0 13 -1 30 10 17 -1 31 8 7 9 15 -1 -1 -1 24 0 32 


CELL_DATA 82
SCALARS GMDS_ID int 1
LOOKUP_TABLE default
2 13 15 16 17 18 19 20 21 22 24 25 26 28 29 30 31 33 34 40 42 45 46 52 53 54 56 57 58 59 63 64 68 69 70 71 72 73 74 75 76 77 78 79 80 81 86 87 89 90 92 93 94 96 98 99 100 101 102 103 104 105 106 107 108 109 110 111 112 113 114 115 116 117 118 119 120 121 122 123 124 125 

SCALARS geom_link_dim int 1
LOOKUP_TABLE default
0 0 0 0 0 0 0 0 0 0 0 0 0 0 0 0 0 0 0 0 0 0 0 0 0 0 0 0 0 0 0 0 0 0 0 0 0 0 0 0 0 0 0 0 0 0 0 0 0 0 0 0 0 0 0 0 0 0 0 0 0 0 0 0 0 0 0 0 0 0 0 0 0 0 0 0 0 0 0 0 0 0 

SCALARS geom_link_id int 1
LOOKUP_TABLE default
0 0 0 0 0 0 0 0 0 0 0 0 0 0 0 0 0 0 0 0 0 0 0 0 0 0 0 0 0 0 0 0 0 0 0 0 0 0 0 0 0 0 0 0 0 0 0 0 0 0 0 0 0 0 0 0 0 0 0 0 0 0 0 0 0 0 0 0 0 0 0 0 0 0 0 0 0 0 0 0 0 0 

