# vtk DataFile Version 3.0
Generated by GMDS VTK Writer

ASCII
DATASET UNSTRUCTURED_GRID
POINTS 150 float
0 0 0
0 10 0
10 10 0
10 0 0
0 0 10
0 10 10
10 10 10
10 0 10
0 1 0
0 1 10
10 1 10
10 1 0
0 0 1
10 0 1
10 1 1
0 1 1
10 10 1
0 10 1
0 6 0
10 6 0
10 6 1
0 6 1
10 6 10
0 6 10
0 0 8
10 0 8
10 1 8
0 1 8
10 6 8
0 6 8
10 10 8
0 10 8
0 4 8
10 4 8
10 4 1
0 4 1
0 4 0
10 4 0
0 4 10
10 4 10
10 4 4
0 4 4
0 6 4
10 6 4
10 1 4
0 1 4
0 0 4
10 0 4
10 10 4
0 10 4
1 0 10
1 1 10
1 1 8
1 0 8
1 0 0
1 1 0
1 1 1
1 0 1
1 6 0
1 6 1
1 10 1
1 10 0
1 6 4
1 4 4
1 4 1
1 6 8
1 4 8
1 10 10
1 6 10
1 10 8
1 4 0
1 4 10
1 1 4
1 0 4
1 10 4
4 0 10
4 1 10
4 1 8
4 0 8
4 0 0
4 1 0
4 1 1
4 0 1
4 6 0
4 6 1
4 10 1
4 10 0
4 6 4
4 4 4
4 4 1
4 6 8
4 4 8
4 10 10
4 6 10
4 10 8
4 4 0
4 4 10
4 1 4
4 0 4
4 10 4
4 8 1
4 8 0
10 8 0
10 8 1
1 8 1
1 8 0
0 8 0
0 8 1
0 8 10
0 8 8
1 8 8
1 8 10
0 8 4
1 8 4
4 8 8
4 8 10
10 8 8
10 8 10
4 8 4
10 8 4
8 6 4
8 4 4
8 4 1
8 6 1
8 0 0
8 1 0
8 1 1
8 0 1
8 0 10
8 1 10
8 1 8
8 0 8
8 8 1
8 8 0
8 6 0
8 10 1
8 10 0
8 6 8
8 4 8
8 4 0
8 4 10
8 6 10
8 1 4
8 0 4
8 10 10
8 10 8
8 8 8
8 8 10
8 10 4
8 8 4

CELLS 296 1480
4 3 11 14 13 
4 63 66 91 88 
4 17 49 112 107 
4 65 66 91 90 
4 87 88 89 84 
4 134 133 102 19 
4 4 9 27 24 
4 43 40 34 20 
4 59 62 87 84 
4 8 15 56 55 
4 28 33 40 43 
4 59 64 89 84 
4 109 112 113 110 
4 0 8 15 12 
4 0 8 55 54 
4 63 64 89 88 
4 50 51 52 53 
4 62 63 88 87 
4 7 10 26 25 
4 110 113 62 65 
4 83 101 133 134 
4 132 133 102 103 
4 100 101 133 132 
4 128 129 130 131 
4 4 24 53 50 
4 60 61 86 85 
4 69 74 113 110 
4 128 131 25 7 
4 75 78 131 128 
4 24 27 52 53 
4 58 59 84 83 
4 42 41 35 21 
4 79 80 81 82 
4 112 113 62 42 
4 29 32 41 42 
4 54 57 82 79 
4 130 131 25 26 
4 9 27 52 51 
4 49 74 113 112 
4 77 78 131 130 
4 4 9 51 50 
4 56 57 82 81 
4 11 14 34 37 
4 37 34 20 19 
4 8 15 35 36 
4 36 35 21 18 
4 55 56 81 80 
4 54 55 80 79 
4 10 26 33 39 
4 39 33 28 22 
4 9 27 32 38 
4 38 32 29 23 
4 75 76 77 78 
4 27 32 41 45 
4 45 41 35 15 
4 26 33 40 44 
4 44 40 34 14 
4 50 53 78 75 
4 52 53 78 77 
4 25 26 44 47 
4 47 44 14 13 
4 24 27 45 46 
4 46 45 15 12 
4 129 130 26 10 
4 76 77 130 129 
4 51 52 77 76 
4 128 129 10 7 
4 75 76 129 128 
4 50 51 76 75 
4 12 15 56 57 
4 109 112 42 29 
4 0 12 57 54 
4 31 49 112 109 
4 54 55 56 57 
4 18 21 59 58 
4 108 109 110 111 
4 124 125 126 127 
4 108 111 68 23 
4 1 17 60 61 
4 5 67 111 108 
4 124 127 13 3 
4 111 110 65 68 
4 79 82 127 124 
4 41 42 62 63 
4 67 69 110 111 
4 35 41 63 64 
4 109 110 65 29 
4 21 35 64 59 
4 31 69 110 109 
4 21 42 62 59 
4 108 109 29 23 
4 62 63 64 59 
4 29 32 66 65 
4 5 31 109 108 
4 32 41 63 66 
4 106 107 104 105 
4 29 42 62 65 
4 106 105 58 18 
4 65 66 63 62 
4 126 127 13 14 
4 1 61 105 106 
4 23 29 65 68 
4 107 104 59 21 
4 81 82 127 126 
4 17 60 104 107 
4 5 31 69 67 
4 106 107 21 18 
4 125 126 14 11 
4 15 35 64 56 
4 1 17 107 106 
4 35 36 70 64 
4 104 105 101 100 
4 8 36 70 55 
4 104 100 84 59 
4 55 56 64 70 
4 18 36 70 58 
4 60 85 100 104 
4 70 64 59 58 
4 27 32 66 52 
4 105 101 83 58 
4 32 38 71 66 
4 61 86 101 105 
4 9 38 71 51 
4 104 105 58 59 
4 51 52 66 71 
4 23 38 71 68 
4 60 61 105 104 
4 71 66 65 68 
4 41 45 72 63 
4 27 45 72 52 
4 52 66 63 72 
4 15 45 72 56 
4 72 63 64 56 
4 45 46 73 72 
4 102 103 20 19 
4 24 46 73 53 
4 2 16 103 102 
4 53 52 72 73 
4 12 46 73 57 
4 73 72 56 57 
4 31 49 74 69 
4 80 81 126 125 
4 100 101 83 84 
4 124 125 11 3 
4 17 49 74 60 
4 85 86 101 100 
4 79 80 125 124 
4 62 65 90 87 
4 90 91 88 87 
4 120 121 122 123 
4 123 120 43 20 
4 65 68 93 90 
4 84 87 120 123 
4 123 122 34 20 
4 67 69 94 92 
4 84 89 122 123 
4 56 64 89 81 
4 64 70 95 89 
4 55 70 95 80 
4 80 81 89 95 
4 58 70 95 83 
4 95 89 84 83 
4 52 66 91 77 
4 66 71 96 91 
4 51 71 96 76 
4 76 77 91 96 
4 68 71 96 93 
4 96 91 90 93 
4 63 72 97 88 
4 52 72 97 77 
4 77 91 88 97 
4 56 72 97 81 
4 97 88 89 81 
4 72 73 98 97 
4 53 73 98 78 
4 78 77 97 98 
4 57 73 98 82 
4 98 97 81 82 
4 69 74 99 94 
4 121 122 34 40 
4 88 89 122 121 
4 120 121 40 43 
4 60 74 99 85 
4 87 88 121 120 
4 107 112 42 21 
4 60 74 113 104 
4 104 113 62 59 
4 107 112 113 104 
4 69 94 114 110 
4 110 114 90 65 
4 92 94 114 115 
4 115 114 90 93 
4 67 92 115 111 
4 111 115 93 68 
4 111 110 114 115 
4 6 30 116 117 
4 117 116 28 22 
4 74 99 118 113 
4 113 118 87 62 
4 94 99 118 114 
4 114 118 87 90 
4 110 113 118 114 
4 30 48 119 116 
4 116 119 43 28 
4 85 99 118 100 
4 100 118 87 84 
4 104 113 118 100 
4 16 48 119 103 
4 103 119 43 20 
4 83 84 123 134 
4 134 123 20 19 
4 84 100 132 123 
4 123 132 103 20 
4 132 133 134 123 
4 85 86 136 135 
4 135 136 2 16 
4 86 101 133 136 
4 136 133 102 2 
4 85 100 132 135 
4 135 132 103 16 
4 135 136 133 132 
4 90 91 138 137 
4 137 138 33 28 
4 88 91 138 121 
4 121 138 33 40 
4 87 90 137 120 
4 120 137 28 43 
4 137 138 121 120 
4 81 89 122 126 
4 126 122 34 14 
4 89 95 139 122 
4 122 139 37 34 
4 80 95 139 125 
4 125 139 37 11 
4 125 126 122 139 
4 83 95 139 134 
4 134 139 37 19 
4 139 122 123 134 
4 77 91 138 130 
4 130 138 33 26 
4 91 96 140 138 
4 138 140 39 33 
4 76 96 140 129 
4 129 140 39 10 
4 129 130 138 140 
4 90 93 141 137 
4 137 141 22 28 
4 93 96 140 141 
4 141 140 39 22 
4 140 138 137 141 
4 88 97 142 121 
4 121 142 44 40 
4 77 97 142 130 
4 130 142 44 26 
4 130 138 121 142 
4 81 97 142 126 
4 126 142 44 14 
4 142 121 122 126 
4 97 98 143 142 
4 142 143 47 44 
4 78 98 143 131 
4 131 143 47 25 
4 131 130 142 143 
4 82 98 143 127 
4 127 143 47 13 
4 143 142 126 127 
4 92 94 145 144 
4 144 145 30 6 
4 94 114 146 145 
4 145 146 116 30 
4 114 115 147 146 
4 146 147 117 116 
4 92 115 147 144 
4 144 147 117 6 
4 144 145 146 147 
4 90 114 146 137 
4 137 146 116 28 
4 93 115 147 141 
4 141 147 117 22 
4 147 146 137 141 
4 94 99 148 145 
4 145 148 48 30 
4 99 118 149 148 
4 148 149 119 48 
4 114 118 149 146 
4 146 149 119 116 
4 145 148 149 146 
4 87 118 149 120 
4 120 149 119 43 
4 146 149 120 137 
4 85 99 148 135 
4 135 148 48 16 
4 100 118 149 132 
4 132 149 119 103 
4 135 148 149 132 
4 132 149 120 123 

CELL_TYPES 296
9 
9 
9 
9 
9 
9 
9 
9 
9 
9 
9 
9 
9 
9 
9 
9 
9 
9 
9 
9 
9 
9 
9 
9 
9 
9 
9 
9 
9 
9 
9 
9 
9 
9 
9 
9 
9 
9 
9 
9 
9 
9 
9 
9 
9 
9 
9 
9 
9 
9 
9 
9 
9 
9 
9 
9 
9 
9 
9 
9 
9 
9 
9 
9 
9 
9 
9 
9 
9 
9 
9 
9 
9 
9 
9 
9 
9 
9 
9 
9 
9 
9 
9 
9 
9 
9 
9 
9 
9 
9 
9 
9 
9 
9 
9 
9 
9 
9 
9 
9 
9 
9 
9 
9 
9 
9 
9 
9 
9 
9 
9 
9 
9 
9 
9 
9 
9 
9 
9 
9 
9 
9 
9 
9 
9 
9 
9 
9 
9 
9 
9 
9 
9 
9 
9 
9 
9 
9 
9 
9 
9 
9 
9 
9 
9 
9 
9 
9 
9 
9 
9 
9 
9 
9 
9 
9 
9 
9 
9 
9 
9 
9 
9 
9 
9 
9 
9 
9 
9 
9 
9 
9 
9 
9 
9 
9 
9 
9 
9 
9 
9 
9 
9 
9 
9 
9 
9 
9 
9 
9 
9 
9 
9 
9 
9 
9 
9 
9 
9 
9 
9 
9 
9 
9 
9 
9 
9 
9 
9 
9 
9 
9 
9 
9 
9 
9 
9 
9 
9 
9 
9 
9 
9 
9 
9 
9 
9 
9 
9 
9 
9 
9 
9 
9 
9 
9 
9 
9 
9 
9 
9 
9 
9 
9 
9 
9 
9 
9 
9 
9 
9 
9 
9 
9 
9 
9 
9 
9 
9 
9 
9 
9 
9 
9 
9 
9 
9 
9 
9 
9 
9 
9 
9 
9 
9 
9 
9 
9 
9 
9 
9 
9 
9 
9 
9 
9 
9 
9 
9 
9 
9 
9 
9 
9 
9 
9 
POINT_DATA 150
SCALARS GMDS_ID int 1
LOOKUP_TABLE default
0 1 2 3 4 5 6 7 8 9 10 11 12 13 14 15 16 17 18 19 20 21 22 23 24 25 26 27 28 29 30 31 32 33 34 35 36 37 38 39 40 41 42 43 44 45 46 47 48 49 50 51 52 53 54 55 56 57 58 59 60 61 62 63 64 65 66 67 68 69 70 71 72 73 74 75 76 77 78 79 80 81 82 83 84 85 86 87 88 89 90 91 92 93 94 95 96 97 98 99 100 101 102 103 104 105 106 107 108 109 110 111 112 113 114 115 116 117 118 119 120 121 122 123 124 125 126 127 128 129 130 131 132 133 134 135 136 137 138 139 140 141 142 143 144 145 146 147 148 149 
SCALARS geom_link_dim int 1
LOOKUP_TABLE default
1 1 1 1 1 1 1 1 2 2 2 2 2 2 3 3 2 2 2 2 3 3 2 2 2 2 3 3 3 3 2 2 3 3 3 3 2 2 2 2 3 3 3 3 3 3 2 2 2 2 2 3 0 3 2 3 0 3 3 0 3 2 0 0 0 0 0 2 3 3 3 3 0 3 3 2 3 0 3 2 3 0 3 3 0 3 2 0 0 0 0 0 2 3 3 3 3 0 3 3 0 3 2 3 0 3 2 3 2 3 0 3 3 0 0 3 3 2 0 3 0 0 0 0 2 3 0 3 2 3 0 3 0 3 3 3 2 0 0 3 3 3 0 3 2 3 0 3 3 0 
SCALARS geom_link_id int 1
LOOKUP_TABLE default
10 12 16 13 9 11 15 14 19 29 26 31 21 33 13 10 27 32 19 31 13 10 26 29 21 33 13 10 13 10 27 32 10 13 13 10 19 31 29 26 13 10 10 13 13 10 21 33 27 32 28 18 0 12 20 11 0 12 11 0 17 30 0 0 0 0 0 25 18 17 11 18 0 12 17 28 18 0 12 20 11 0 12 11 0 17 30 0 0 0 0 0 25 18 17 11 18 0 12 17 0 11 31 13 0 11 19 10 29 10 0 18 10 0 0 18 13 26 0 13 -1 -1 -1 -1 20 11 -1 12 28 18 -1 12 -1 11 11 17 30 -1 -1 11 18 18 -1 12 25 17 -1 18 17 -1 


CELL_DATA 296
SCALARS GMDS_ID int 1
LOOKUP_TABLE default
1 2 3 5 6 7 9 10 11 13 14 15 16 17 18 20 21 23 24 25 26 27 28 29 30 32 33 34 35 36 38 39 40 41 42 44 45 46 48 49 50 51 53 54 55 56 57 59 60 61 62 63 64 66 67 68 69 70 72 73 74 75 76 78 79 80 82 83 84 85 86 87 88 89 90 91 92 93 94 95 96 97 98 99 100 101 102 103 104 105 106 107 108 109 110 111 112 113 114 115 116 117 118 119 120 121 122 123 124 125 126 127 128 129 130 131 132 133 134 135 136 137 138 139 140 141 142 143 144 146 148 149 151 152 153 154 155 156 157 159 160 162 163 164 165 166 167 168 170 171 172 173 175 176 177 179 180 182 184 186 187 189 190 192 194 196 197 199 200 202 204 205 207 208 210 212 213 215 216 218 219 220 221 223 224 225 226 227 228 229 230 231 232 233 234 237 238 242 243 244 245 246 249 250 252 253 254 255 256 258 259 260 261 262 263 264 265 266 267 268 269 270 271 272 273 274 275 276 277 278 279 280 281 282 283 284 285 286 287 288 289 290 291 292 293 294 295 296 297 298 299 300 301 302 303 304 305 306 307 308 309 310 311 312 313 314 315 316 317 318 319 320 321 322 323 324 325 326 327 328 329 330 331 332 333 334 335 336 337 338 339 340 341 342 343 344 

SCALARS geom_link_dim int 1
LOOKUP_TABLE default
0 0 0 0 0 0 0 0 0 0 0 0 0 0 0 0 0 0 0 0 0 0 0 0 0 0 0 0 0 0 0 0 0 0 0 0 0 0 0 0 0 0 0 0 0 0 0 0 0 0 0 0 0 0 0 0 0 0 0 0 0 0 0 0 0 0 0 0 0 0 0 0 0 0 0 0 0 0 0 0 0 0 0 0 0 0 0 0 0 0 0 0 0 0 0 0 0 0 0 0 0 0 0 0 0 0 0 0 0 0 0 0 0 0 0 0 0 0 0 0 0 0 0 0 0 0 0 0 0 0 0 0 0 0 0 0 0 0 0 0 0 0 0 0 0 0 0 0 0 0 0 0 0 0 0 0 0 0 0 0 0 0 0 0 0 0 0 0 0 0 0 0 0 0 0 0 0 0 0 0 0 0 0 0 0 0 0 0 0 0 0 0 0 0 0 0 0 0 0 0 0 0 0 0 0 0 0 0 0 0 0 0 0 0 0 0 0 0 0 0 0 0 0 0 0 0 0 0 0 0 0 0 0 0 0 0 0 0 0 0 0 0 0 0 0 0 0 0 0 0 0 0 0 0 0 0 0 0 0 0 0 0 0 0 0 0 0 0 0 0 0 0 0 0 0 0 0 0 0 0 0 0 0 0 0 0 0 0 0 0 0 0 0 0 0 0 

SCALARS geom_link_id int 1
LOOKUP_TABLE default
0 0 0 0 0 -1 0 0 0 0 0 0 0 0 0 0 0 0 0 0 -1 -1 -1 -1 0 0 0 -1 -1 0 0 0 0 0 0 0 -1 0 0 -1 0 0 0 0 0 0 0 0 0 0 0 0 0 0 0 0 0 0 0 0 0 0 0 -1 -1 0 -1 -1 0 0 0 0 0 0 0 0 -1 0 0 0 -1 0 -1 0 0 0 0 0 0 0 0 0 0 0 0 0 0 0 0 -1 0 0 0 -1 0 0 0 -1 0 0 0 0 0 0 0 0 0 0 0 0 0 0 0 0 0 0 0 0 0 0 0 0 0 0 0 0 0 0 0 0 0 -1 0 -1 0 0 -1 0 0 -1 -1 0 -1 -1 0 -1 0 0 0 0 0 0 0 0 0 0 0 0 0 0 0 0 0 0 0 0 0 0 0 -1 -1 -1 0 -1 0 0 0 0 0 0 0 0 0 0 0 0 0 0 0 0 0 0 0 0 0 0 0 0 0 -1 -1 -1 -1 -1 -1 -1 -1 -1 -1 -1 -1 -1 -1 -1 -1 -1 -1 -1 -1 -1 -1 -1 -1 -1 -1 -1 -1 -1 -1 -1 -1 -1 -1 -1 -1 -1 -1 -1 -1 -1 -1 -1 -1 -1 -1 -1 -1 -1 -1 -1 -1 -1 -1 -1 -1 -1 -1 -1 -1 -1 -1 -1 -1 -1 -1 -1 -1 -1 -1 -1 -1 -1 -1 -1 -1 -1 -1 -1 -1 -1 -1 -1 -1 -1 -1 -1 

