# vtk DataFile Version 3.0
Generated by GMDS VTK Writer

ASCII
DATASET UNSTRUCTURED_GRID
POINTS 56 float
5 0 0
5 0 -5
10 10 -5
10 -5 -5
-5 -5 10
10 -5 10
-5 5 10
10 5 10
10 5 -5
-5 -5 -8.88178419700125e-16
10 -5 -8.88178419700125e-16
10 5 0
-5 5 0
10 10 -8.88178419700125e-16
-8.88178419700125e-16 -5 -5
0 5 -5
0 5 0
0 -5 0
0 5 10
-8.88178419700125e-16 -5 10
-8.88178419700125e-16 10 -5
0 10 0
-8.88178419700125e-16 10 10
-5 0 0
0 0 0
0 0 -5
10 0 0
10 -4.44089209850063e-16 -5
-5 -4.44089209850063e-16 10
0 0 10
10 -4.44089209850063e-16 10
-5 5 5
0 5 5
0 10 5
10 5 5
10 10 5
-5 -5 5
0 -5 5
-2.22044604925031e-16 0 5
-5 0 5
10 -5 5
10 0 5
5 5 0
5 5 -5
5 -5 -5
5 -5 0
5 5 5
5 10 5
5 10 0
5 5 10
5 10 10
5 10 -5
5 -5 10
5 0 10
5 0 5
5 -5 5

CELLS 86 430
4 43 42 11 8 
4 3 10 26 27 
4 42 0 26 11 
4 25 24 16 15 
4 14 17 24 25 
4 32 33 21 16 
4 18 22 33 32 
4 23 24 16 12 
4 2 8 11 13 
4 16 32 46 42 
4 9 17 24 23 
4 16 24 0 42 
4 42 48 13 11 
4 15 16 42 43 
4 31 32 16 12 
4 16 21 48 42 
4 48 47 35 13 
4 6 18 32 31 
4 21 33 47 48 
4 46 47 35 34 
4 0 1 27 26 
4 24 25 1 0 
4 20 15 16 21 
4 32 33 47 46 
4 44 45 0 1 
4 44 1 27 3 
4 14 25 1 44 
4 45 0 26 10 
4 17 24 0 45 
4 44 45 10 3 
4 4 19 29 28 
4 28 29 18 6 
4 14 17 45 44 
4 1 0 42 43 
4 15 25 1 43 
4 35 34 11 13 
4 4 19 37 36 
4 36 37 17 9 
4 19 29 38 37 
4 37 38 24 17 
4 28 29 38 39 
4 39 38 24 23 
4 4 28 39 36 
4 36 39 23 9 
4 36 37 38 39 
4 18 29 38 32 
4 32 38 24 16 
4 6 28 39 31 
4 31 39 23 12 
4 39 38 32 31 
4 5 30 41 40 
4 40 41 26 10 
4 7 30 41 34 
4 34 41 26 11 
4 42 46 34 11 
4 46 47 48 42 
4 18 22 50 49 
4 22 33 47 50 
4 18 32 46 49 
4 49 46 34 7 
4 49 50 47 46 
4 15 20 51 43 
4 43 51 2 8 
4 20 21 48 51 
4 51 48 13 2 
4 51 43 42 48 
4 19 29 53 52 
4 52 53 30 5 
4 29 38 54 53 
4 53 54 41 30 
4 37 38 54 55 
4 55 54 41 40 
4 19 37 55 52 
4 52 55 40 5 
4 52 53 54 55 
4 24 38 54 0 
4 0 54 41 26 
4 17 37 55 45 
4 45 55 40 10 
4 55 54 0 45 
4 18 29 53 49 
4 49 53 30 7 
4 32 38 54 46 
4 46 54 41 34 
4 49 53 54 46 
4 46 54 0 42 

CELL_TYPES 86
9 
9 
9 
9 
9 
9 
9 
9 
9 
9 
9 
9 
9 
9 
9 
9 
9 
9 
9 
9 
9 
9 
9 
9 
9 
9 
9 
9 
9 
9 
9 
9 
9 
9 
9 
9 
9 
9 
9 
9 
9 
9 
9 
9 
9 
9 
9 
9 
9 
9 
9 
9 
9 
9 
9 
9 
9 
9 
9 
9 
9 
9 
9 
9 
9 
9 
9 
9 
9 
9 
9 
9 
9 
9 
9 
9 
9 
9 
9 
9 
9 
9 
9 
9 
9 
9 
POINT_DATA 56
SCALARS GMDS_ID int 1
LOOKUP_TABLE default
0 1 2 3 4 7 9 10 11 12 13 14 15 16 18 19 20 21 22 23 24 25 26 28 29 30 31 32 33 34 35 37 38 39 40 41 42 43 44 45 46 47 48 49 50 51 52 53 54 55 56 57 58 59 60 61 
SCALARS geom_link_dim int 1
LOOKUP_TABLE default
1 1 0 0 0 0 0 0 0 0 0 1 1 0 0 1 1 1 1 0 0 1 0 1 1 1 1 0 0 1 0 1 1 1 1 0 0 1 0 1 0 1 1 1 0 1 1 1 1 1 0 0 0 1 0 1 
SCALARS geom_link_id int 1
LOOKUP_TABLE default
26 25 -1 -1 -1 -1 -1 -1 -1 -1 -1 21 5 -1 -1 18 1 28 16 -1 -1 4 -1 11 12 19 29 -1 -1 20 -1 6 2 3 22 -1 -1 27 0 13 -1 30 10 17 -1 31 8 7 9 15 -1 -1 -1 24 0 32 


CELL_DATA 86
SCALARS GMDS_ID int 1
LOOKUP_TABLE default
2 3 13 15 16 17 18 19 20 21 22 24 25 26 28 29 30 31 33 34 36 40 42 45 46 47 52 53 54 55 56 57 58 59 63 64 68 69 70 71 72 73 74 75 76 77 78 79 80 81 86 87 89 90 92 93 94 96 98 99 100 101 102 103 104 105 106 107 108 109 110 111 112 113 114 115 116 117 118 119 120 121 122 123 124 125 

SCALARS geom_link_dim int 1
LOOKUP_TABLE default
0 0 0 0 0 0 0 0 0 0 0 0 0 0 0 0 0 0 0 0 0 0 0 0 0 0 0 0 0 0 0 0 0 0 0 0 0 0 0 0 0 0 0 0 0 0 0 0 0 0 0 0 0 0 0 0 0 0 0 0 0 0 0 0 0 0 0 0 0 0 0 0 0 0 0 0 0 0 0 0 0 0 0 0 0 0 

SCALARS geom_link_id int 1
LOOKUP_TABLE default
0 0 0 0 0 0 0 0 0 0 0 0 0 0 0 0 0 0 0 0 0 0 0 0 0 0 0 0 0 0 0 0 0 0 0 0 0 0 0 0 0 0 0 0 0 0 0 0 0 0 0 0 0 0 0 0 0 0 0 0 0 0 0 0 0 0 0 0 0 0 0 0 0 0 0 0 0 0 0 0 0 0 0 0 0 0 

