# vtk DataFile Version 3.0
Generated by GMDS VTK Writer

ASCII
DATASET UNSTRUCTURED_GRID
POINTS 80 float
0 0 0
0 10 0
10 10 0
10 0 0
0 0 10
0 10 10
10 10 10
10 0 10
0 4 0
0 4 10
10 4 10
10 4 0
1 0 0
1 0 10
1 4 10
1 4 0
1 10 10
1 10 0
4 0 0
4 0 10
4 4 10
4 4 0
4 10 10
4 10 0
1 0 6
1 4 6
0 4 6
0 0 6
4 0 6
4 4 6
10 0 6
10 4 6
1 10 6
0 10 6
10 10 6
4 10 6
0 1 10
1 1 10
1 1 6
0 1 6
1 1 0
0 1 0
4 1 10
4 1 6
4 1 0
10 1 10
10 1 6
10 1 0
0 1 4
1 1 4
1 4 4
0 4 4
0 0 4
1 0 4
1 10 4
0 10 4
10 10 4
10 4 4
4 4 4
4 10 4
4 0 4
4 1 4
10 0 4
10 1 4
6 10 10
6 4 10
6 4 6
6 10 6
6 0 10
6 0 6
6 1 6
6 1 10
6 10 0
6 4 0
6 4 4
6 10 4
6 0 0
6 1 0
6 1 4
6 0 4

CELLS 141 705
4 15 17 54 50 
4 4 13 24 27 
4 52 53 49 48 
4 13 19 42 37 
4 2 11 73 72 
4 52 48 39 27 
4 71 70 66 65 
4 65 71 42 20 
4 41 40 15 8 
4 0 41 48 52 
4 0 12 40 41 
4 10 45 71 65 
4 53 49 38 24 
4 66 70 43 29 
4 36 37 38 39 
4 12 40 49 53 
4 36 39 26 9 
4 31 46 70 66 
4 52 53 24 27 
4 4 27 39 36 
4 9 14 25 26 
4 16 14 9 5 
4 0 12 53 52 
4 38 39 26 25 
4 48 49 50 51 
4 17 15 8 1 
4 24 27 39 38 
4 51 48 39 26 
4 37 38 25 14 
4 22 20 14 16 
4 13 24 38 37 
4 36 37 14 9 
4 23 21 15 17 
4 4 13 37 36 
4 68 69 70 71 
4 8 41 48 51 
4 51 50 25 26 
4 8 15 50 51 
4 14 20 29 25 
4 68 71 42 19 
4 13 19 28 24 
4 7 45 71 68 
4 50 49 38 25 
4 15 40 49 50 
4 49 48 39 38 
4 71 70 43 42 
4 45 46 70 71 
4 40 41 48 49 
4 14 16 32 25 
4 69 70 43 28 
4 5 9 26 33 
4 30 46 70 69 
4 5 16 32 33 
4 68 69 28 19 
4 32 25 26 33 
4 6 10 31 34 
4 7 30 69 68 
4 20 22 35 29 
4 64 65 66 67 
4 64 67 35 22 
4 16 22 35 32 
4 6 34 67 64 
4 35 29 25 32 
4 37 42 20 14 
4 19 28 43 42 
4 42 43 29 20 
4 24 28 43 38 
4 38 43 29 25 
4 37 42 43 38 
4 66 67 35 29 
4 31 34 67 66 
4 12 18 44 40 
4 40 44 21 15 
4 65 66 29 20 
4 7 30 46 45 
4 45 46 31 10 
4 10 31 66 65 
4 64 65 20 22 
4 6 10 65 64 
4 50 54 32 25 
4 1 8 51 55 
4 55 51 26 33 
4 1 17 54 55 
4 55 54 32 33 
4 54 50 51 55 
4 2 11 57 56 
4 56 57 31 34 
4 21 23 59 58 
4 58 59 35 29 
4 15 21 58 50 
4 50 58 29 25 
4 17 23 59 54 
4 54 59 35 32 
4 59 58 50 54 
4 12 18 60 53 
4 53 60 28 24 
4 18 44 61 60 
4 60 61 43 28 
4 40 44 61 49 
4 49 61 43 38 
4 53 60 61 49 
4 21 44 61 58 
4 58 61 43 29 
4 49 61 58 50 
4 3 47 63 62 
4 62 63 46 30 
4 11 47 63 57 
4 57 63 46 31 
4 72 73 21 23 
4 11 57 74 73 
4 73 74 58 21 
4 56 57 74 75 
4 75 74 58 59 
4 2 56 75 72 
4 72 75 59 23 
4 72 73 74 75 
4 31 57 74 66 
4 66 74 58 29 
4 34 56 75 67 
4 67 75 59 35 
4 75 74 66 67 
4 3 47 77 76 
4 76 77 44 18 
4 47 63 78 77 
4 77 78 61 44 
4 62 63 78 79 
4 79 78 61 60 
4 3 62 79 76 
4 76 79 60 18 
4 76 77 78 79 
4 46 63 78 70 
4 70 78 61 43 
4 30 62 79 69 
4 69 79 60 28 
4 79 78 70 69 
4 11 47 77 73 
4 73 77 44 21 
4 57 63 78 74 
4 74 78 61 58 
4 73 77 78 74 
4 74 78 70 66 

CELL_TYPES 141
9 
9 
9 
9 
9 
9 
9 
9 
9 
9 
9 
9 
9 
9 
9 
9 
9 
9 
9 
9 
9 
9 
9 
9 
9 
9 
9 
9 
9 
9 
9 
9 
9 
9 
9 
9 
9 
9 
9 
9 
9 
9 
9 
9 
9 
9 
9 
9 
9 
9 
9 
9 
9 
9 
9 
9 
9 
9 
9 
9 
9 
9 
9 
9 
9 
9 
9 
9 
9 
9 
9 
9 
9 
9 
9 
9 
9 
9 
9 
9 
9 
9 
9 
9 
9 
9 
9 
9 
9 
9 
9 
9 
9 
9 
9 
9 
9 
9 
9 
9 
9 
9 
9 
9 
9 
9 
9 
9 
9 
9 
9 
9 
9 
9 
9 
9 
9 
9 
9 
9 
9 
9 
9 
9 
9 
9 
9 
9 
9 
9 
9 
9 
9 
9 
9 
9 
9 
9 
9 
9 
9 
POINT_DATA 80
SCALARS GMDS_ID int 1
LOOKUP_TABLE default
0 1 2 3 4 5 6 7 8 9 10 11 12 13 14 15 16 17 18 19 20 21 22 23 24 25 26 27 28 29 30 31 32 33 34 35 36 37 38 39 40 41 42 43 44 45 46 47 48 49 50 51 52 53 54 55 56 57 58 59 60 61 62 63 64 65 66 67 68 69 70 71 72 73 74 75 76 77 78 79 
SCALARS geom_link_dim int 1
LOOKUP_TABLE default
1 1 1 1 1 1 1 1 2 2 2 2 2 2 3 3 2 2 2 2 3 3 2 2 3 0 3 2 3 0 2 3 3 2 2 3 2 3 0 3 3 2 3 0 3 2 3 2 3 0 0 3 2 3 3 2 2 3 0 3 3 0 2 3 2 3 0 3 2 3 0 3 2 3 0 3 2 3 0 3 
SCALARS geom_link_id int 1
LOOKUP_TABLE default
10 12 16 13 9 11 15 14 19 29 26 31 20 28 18 11 25 30 20 28 18 11 25 30 12 0 10 21 12 0 33 13 17 32 27 17 29 18 0 10 11 19 18 0 11 26 13 31 10 0 0 10 21 12 17 32 27 13 0 17 12 0 33 13 25 18 -1 17 28 12 -1 18 30 11 -1 17 20 11 -1 12 


CELL_DATA 141
SCALARS GMDS_ID int 1
LOOKUP_TABLE default
0 1 2 3 4 5 6 7 8 9 10 11 12 13 14 15 16 17 18 19 20 21 22 23 24 25 26 27 28 30 31 32 34 35 36 37 38 39 40 41 42 43 44 45 46 48 50 51 52 53 54 55 56 57 58 59 60 61 62 64 66 67 68 69 70 71 72 73 74 75 76 77 78 79 84 85 89 90 91 92 93 94 95 96 97 98 99 102 103 107 108 109 110 111 112 113 114 115 116 117 118 119 120 121 126 127 129 130 132 133 134 135 136 137 138 139 140 141 142 143 144 145 146 147 148 149 150 151 152 153 154 155 156 157 158 159 160 161 162 163 164 

SCALARS geom_link_dim int 1
LOOKUP_TABLE default
0 0 0 0 0 0 0 0 0 0 0 0 0 0 0 0 0 0 0 0 0 0 0 0 0 0 0 0 0 0 0 0 0 0 0 0 0 0 0 0 0 0 0 0 0 0 0 0 0 0 0 0 0 0 0 0 0 0 0 0 0 0 0 0 0 0 0 0 0 0 0 0 0 0 0 0 0 0 0 0 0 0 0 0 0 0 0 0 0 0 0 0 0 0 0 0 0 0 0 0 0 0 0 0 0 0 0 0 0 0 0 0 0 0 0 0 0 0 0 0 0 0 0 0 0 0 0 0 0 0 0 0 0 0 0 0 0 0 0 0 0 

SCALARS geom_link_id int 1
LOOKUP_TABLE default
0 0 0 0 -1 0 -1 -1 0 0 0 -1 0 -1 0 0 0 -1 0 0 0 0 0 0 0 0 0 0 0 0 0 0 0 0 -1 0 0 0 0 -1 0 -1 0 0 0 -1 -1 0 0 -1 0 -1 0 -1 0 0 -1 0 -1 -1 0 -1 0 0 0 0 0 0 0 -1 -1 0 0 -1 0 0 -1 -1 -1 0 0 0 0 0 0 0 0 0 0 0 0 0 0 0 0 0 0 0 0 0 0 0 0 0 0 0 0 0 -1 -1 -1 -1 -1 -1 -1 -1 -1 -1 -1 -1 -1 -1 -1 -1 -1 -1 -1 -1 -1 -1 -1 -1 -1 -1 -1 -1 -1 -1 -1 -1 -1 

