# vtk DataFile Version 3.0
Generated by GMDS VTK Writer

ASCII
DATASET UNSTRUCTURED_GRID
POINTS 52 float
5 0 0
5 0 -5
10 10 -5
-5 -5 10
10 -5 10
-5 5 10
10 5 10
10 5 -5
-5 -5 -8.88178419700125e-16
10 -5 -8.88178419700125e-16
10 5 0
-5 5 0
10 10 -8.88178419700125e-16
-8.88178419700125e-16 -5 -5
0 5 -5
0 5 0
0 -5 0
0 5 10
-8.88178419700125e-16 -5 10
-8.88178419700125e-16 10 -5
0 10 0
-5 0 0
0 0 0
0 0 -5
10 0 0
-5 -4.44089209850063e-16 10
0 0 10
10 -4.44089209850063e-16 10
-5 5 5
0 5 5
0 10 5
10 5 5
10 10 5
-5 -5 5
0 -5 5
-2.22044604925031e-16 0 5
-5 0 5
10 -5 5
10 0 5
5 5 0
5 5 -5
5 -5 -5
5 -5 0
5 5 5
5 10 5
5 10 0
5 5 10
5 10 -5
5 -5 10
5 0 10
5 0 5
5 -5 5

CELLS 78 390
4 40 39 10 7 
4 39 0 24 10 
4 23 22 15 14 
4 13 16 22 23 
4 29 30 20 15 
4 21 22 15 11 
4 2 7 10 12 
4 15 29 43 39 
4 8 16 22 21 
4 15 22 0 39 
4 39 45 12 10 
4 14 15 39 40 
4 28 29 15 11 
4 15 20 45 39 
4 45 44 32 12 
4 5 17 29 28 
4 20 30 44 45 
4 43 44 32 31 
4 22 23 1 0 
4 19 14 15 20 
4 29 30 44 43 
4 41 42 0 1 
4 13 23 1 41 
4 42 0 24 9 
4 16 22 0 42 
4 3 18 26 25 
4 25 26 17 5 
4 13 16 42 41 
4 1 0 39 40 
4 14 23 1 40 
4 32 31 10 12 
4 3 18 34 33 
4 33 34 16 8 
4 18 26 35 34 
4 34 35 22 16 
4 25 26 35 36 
4 36 35 22 21 
4 3 25 36 33 
4 33 36 21 8 
4 33 34 35 36 
4 17 26 35 29 
4 29 35 22 15 
4 5 25 36 28 
4 28 36 21 11 
4 36 35 29 28 
4 4 27 38 37 
4 37 38 24 9 
4 6 27 38 31 
4 31 38 24 10 
4 39 43 31 10 
4 43 44 45 39 
4 17 29 43 46 
4 46 43 31 6 
4 14 19 47 40 
4 40 47 2 7 
4 19 20 45 47 
4 47 45 12 2 
4 47 40 39 45 
4 18 26 49 48 
4 48 49 27 4 
4 26 35 50 49 
4 49 50 38 27 
4 34 35 50 51 
4 51 50 38 37 
4 18 34 51 48 
4 48 51 37 4 
4 48 49 50 51 
4 22 35 50 0 
4 0 50 38 24 
4 16 34 51 42 
4 42 51 37 9 
4 51 50 0 42 
4 17 26 49 46 
4 46 49 27 6 
4 29 35 50 43 
4 43 50 38 31 
4 46 49 50 43 
4 43 50 0 39 

CELL_TYPES 78
9 
9 
9 
9 
9 
9 
9 
9 
9 
9 
9 
9 
9 
9 
9 
9 
9 
9 
9 
9 
9 
9 
9 
9 
9 
9 
9 
9 
9 
9 
9 
9 
9 
9 
9 
9 
9 
9 
9 
9 
9 
9 
9 
9 
9 
9 
9 
9 
9 
9 
9 
9 
9 
9 
9 
9 
9 
9 
9 
9 
9 
9 
9 
9 
9 
9 
9 
9 
9 
9 
9 
9 
9 
9 
9 
9 
9 
9 
POINT_DATA 52
SCALARS GMDS_ID int 1
LOOKUP_TABLE default
0 1 2 4 7 9 10 11 12 13 14 15 16 18 19 20 21 22 23 24 25 28 29 30 31 33 34 35 37 38 39 40 41 42 43 44 45 46 47 48 49 50 51 52 53 54 55 57 58 59 60 61 
SCALARS geom_link_dim int 1
LOOKUP_TABLE default
1 1 0 0 0 0 0 0 0 0 1 1 0 0 1 1 1 1 0 0 1 1 1 1 1 0 1 0 1 1 1 1 0 0 1 0 1 0 1 1 1 0 1 1 1 1 1 0 0 1 0 1 
SCALARS geom_link_id int 1
LOOKUP_TABLE default
26 25 -1 -1 -1 -1 -1 -1 -1 -1 21 5 -1 -1 18 1 28 16 -1 -1 4 11 12 19 29 -1 20 -1 6 2 3 22 -1 -1 27 0 13 -1 30 10 17 -1 31 8 7 9 15 -1 -1 24 0 32 


CELL_DATA 78
SCALARS GMDS_ID int 1
LOOKUP_TABLE default
2 13 15 16 17 19 20 21 22 24 25 26 28 29 30 31 33 34 40 42 45 46 52 53 54 56 57 58 59 63 64 68 69 70 71 72 73 74 75 76 77 78 79 80 81 86 87 89 90 92 93 98 99 101 102 103 104 105 106 107 108 109 110 111 112 113 114 115 116 117 118 119 120 121 122 123 124 125 

SCALARS geom_link_dim int 1
LOOKUP_TABLE default
0 0 0 0 0 0 0 0 0 0 0 0 0 0 0 0 0 0 0 0 0 0 0 0 0 0 0 0 0 0 0 0 0 0 0 0 0 0 0 0 0 0 0 0 0 0 0 0 0 0 0 0 0 0 0 0 0 0 0 0 0 0 0 0 0 0 0 0 0 0 0 0 0 0 0 0 0 0 

SCALARS geom_link_id int 1
LOOKUP_TABLE default
0 0 0 0 0 0 0 0 0 0 0 0 0 0 0 0 0 0 0 0 0 0 0 0 0 0 0 0 0 0 0 0 0 0 0 0 0 0 0 0 0 0 0 0 0 0 0 0 0 0 0 0 0 0 0 0 0 0 0 0 0 0 0 0 0 0 0 0 0 0 0 0 0 0 0 0 0 0 

