# vtk DataFile Version 3.0
Generated by GMDS VTK Writer

ASCII
DATASET UNSTRUCTURED_GRID
POINTS 24 float
0 0 0
0 10 0
3 10 0
3 0 0
0 0 10
0 10 10
3 10 10
3 0 10
0 3 0
0 3 10
3 3 10
3 3 0
0 0 3
3 0 3
3 3 3
0 3 3
3 10 3
0 10 3
0 0 7
3 0 7
3 3 7
0 3 7
3 10 7
0 10 7

CELLS 29 145
4 3 11 14 13 
4 12 15 21 18 
4 20 21 9 10 
4 0 3 13 12 
4 14 15 21 20 
4 19 20 10 7 
4 4 7 10 9 
4 9 10 6 5 
4 13 14 20 19 
4 18 19 7 4 
4 0 3 11 8 
4 8 11 2 1 
4 12 13 19 18 
4 8 11 14 15 
4 0 8 15 12 
4 12 13 14 15 
4 2 11 14 16 
4 1 2 16 17 
4 1 8 15 17 
4 15 14 16 17 
4 18 21 9 4 
4 18 19 20 21 
4 14 16 22 20 
4 20 22 6 10 
4 16 17 23 22 
4 22 23 5 6 
4 15 17 23 21 
4 21 23 5 9 
4 21 20 22 23 

CELL_TYPES 29
9 
9 
9 
9 
9 
9 
9 
9 
9 
9 
9 
9 
9 
9 
9 
9 
9 
9 
9 
9 
9 
9 
9 
9 
9 
9 
9 
9 
9 
POINT_DATA 24
SCALARS GMDS_ID int 1
LOOKUP_TABLE default
0 1 2 3 4 5 6 7 8 9 10 11 12 13 14 15 16 17 18 19 20 21 22 23 
SCALARS geom_link_dim int 1
LOOKUP_TABLE default
1 1 1 1 1 1 1 1 2 2 2 2 2 2 1 1 2 2 2 2 1 1 2 2 
SCALARS geom_link_id int 1
LOOKUP_TABLE default
4 2 9 11 3 1 10 15 11 9 14 18 19 20 13 5 16 13 19 20 16 7 16 13 


CELL_DATA 29
SCALARS GMDS_ID int 1
LOOKUP_TABLE default
1 2 4 5 6 7 8 9 10 11 12 13 14 15 17 19 20 22 24 26 27 28 29 30 31 32 33 34 35 

SCALARS geom_link_dim int 1
LOOKUP_TABLE default
0 0 0 0 0 0 0 0 0 0 0 0 0 0 0 0 0 0 0 0 0 0 0 0 0 0 0 0 0 

SCALARS geom_link_id int 1
LOOKUP_TABLE default
0 -1 -1 0 -1 -1 0 0 -1 -1 0 0 -1 0 0 0 0 0 0 0 -1 -1 -1 -1 -1 -1 -1 -1 -1 

