# vtk DataFile Version 3.0
Generated by GMDS VTK Writer

ASCII
DATASET UNSTRUCTURED_GRID
POINTS 32 float
10 0 0
-5 0 0
0 0 -5
0 0 0
0 -5 0
0 0 10
0 10 0
0 -5 5
0 0 5
10 0 5
-5 0 5
0 10 5
-5 5 0
0 5 0
0 5 -5
10 5 0
0 5 5
-5 5 5
0 5 10
10 5 5
5 0 5
5 -5 5
5 0 10
5 0 0
5 -5 0
5 0 -5
5 5 -5
5 5 0
5 10 0
5 10 5
5 5 5
5 5 10

CELLS 36 180
4 1 3 8 10 
4 23 24 21 20 
4 3 4 7 8 
4 14 13 3 2 
4 12 13 3 1 
4 23 20 9 0 
4 3 8 20 23 
4 4 7 21 24 
4 3 4 24 23 
4 5 8 20 22 
4 7 8 20 21 
4 6 11 16 13 
4 13 16 8 3 
4 17 16 8 10 
4 12 17 10 1 
4 12 13 16 17 
4 18 16 8 5 
4 15 19 9 0 
4 2 3 23 25 
4 13 14 26 27 
4 3 13 27 23 
4 23 27 15 0 
4 2 14 26 25 
4 26 27 23 25 
4 6 13 27 28 
4 6 11 29 28 
4 11 16 30 29 
4 13 16 30 27 
4 27 30 19 15 
4 28 29 30 27 
4 8 16 30 20 
4 20 30 19 9 
4 27 30 20 23 
4 16 18 31 30 
4 5 18 31 22 
4 31 30 20 22 

CELL_TYPES 36
9 
9 
9 
9 
9 
9 
9 
9 
9 
9 
9 
9 
9 
9 
9 
9 
9 
9 
9 
9 
9 
9 
9 
9 
9 
9 
9 
9 
9 
9 
9 
9 
9 
9 
9 
9 
POINT_DATA 32
SCALARS GMDS_ID int 1
LOOKUP_TABLE default
14 15 19 20 21 22 25 27 28 29 32 34 37 38 39 40 42 43 44 46 48 49 51 52 53 55 56 57 59 60 61 63 
SCALARS geom_link_dim int 1
LOOKUP_TABLE default
1 1 1 1 1 1 1 1 1 1 1 1 1 1 1 1 1 1 1 1 1 1 1 1 1 1 1 1 1 1 1 1 
SCALARS geom_link_id int 1
LOOKUP_TABLE default
29 11 19 12 28 20 4 27 14 30 13 3 5 1 18 21 2 6 16 22 23 32 24 26 31 25 17 10 9 7 8 15 


CELL_DATA 36
SCALARS GMDS_ID int 1
LOOKUP_TABLE default
3 24 26 33 35 36 37 39 43 53 63 68 69 71 73 74 76 85 93 98 100 101 102 104 107 112 114 116 117 118 119 120 121 124 129 131 

SCALARS geom_link_dim int 1
LOOKUP_TABLE default
3 3 3 3 3 3 4 3 3 3 3 3 4 3 3 3 3 3 3 3 4 3 3 3 3 3 3 4 3 3 4 3 4 3 3 3 

SCALARS geom_link_id int 1
LOOKUP_TABLE default
10 2 24 3 27 22 1 29 5 30 6 7 1 9 18 19 16 23 1 12 1 21 26 17 14 8 13 1 11 28 1 20 1 4 25 15 

