# vtk DataFile Version 3.0
Generated by GMDS VTK Writer

ASCII
DATASET UNSTRUCTURED_GRID
POINTS 100 float
0 0 0
0 10 0
10 10 0
10 0 0
0 0 10
0 10 10
10 10 10
10 0 10
0 1 0
0 1 10
10 1 10
10 1 0
0 0 1
10 0 1
10 1 1
0 1 1
10 10 1
0 10 1
0 6 0
10 6 0
10 6 1
0 6 1
10 6 10
0 6 10
0 0 8
10 0 8
10 1 8
0 1 8
10 6 8
0 6 8
10 10 8
0 10 8
0 4 8
10 4 8
10 4 1
0 4 1
0 4 0
10 4 0
0 4 10
10 4 10
10 4 4
0 4 4
0 6 4
10 6 4
10 1 4
0 1 4
0 0 4
10 0 4
10 10 4
0 10 4
1 0 10
1 1 10
1 1 8
1 0 8
1 0 0
1 1 0
1 1 1
1 0 1
1 6 0
1 6 1
1 10 1
1 10 0
1 6 4
1 4 4
1 4 1
1 6 8
1 4 8
1 10 10
1 6 10
1 10 8
1 4 0
1 4 10
1 1 4
1 0 4
1 10 4
4 0 10
4 1 10
4 1 8
4 0 8
4 0 0
4 1 0
4 1 1
4 0 1
4 6 0
4 6 1
4 10 1
4 10 0
4 6 4
4 4 4
4 4 1
4 6 8
4 4 8
4 10 10
4 6 10
4 10 8
4 4 0
4 4 10
4 1 4
4 0 4
4 10 4

CELLS 184 920
4 88 91 33 40 
4 3 11 14 13 
4 63 66 91 88 
4 90 91 33 28 
4 65 66 91 90 
4 87 88 89 84 
4 19 20 16 2 
4 84 87 43 20 
4 4 9 27 24 
4 43 40 34 20 
4 59 62 87 84 
4 84 89 34 20 
4 8 15 56 55 
4 28 33 40 43 
4 59 64 89 84 
4 0 8 15 12 
4 0 8 55 54 
4 88 89 34 40 
4 63 64 89 88 
4 50 51 52 53 
4 87 88 40 43 
4 62 63 88 87 
4 7 10 26 25 
4 83 84 85 86 
4 18 21 17 1 
4 83 86 2 19 
4 58 61 86 83 
4 4 24 53 50 
4 85 86 2 16 
4 60 61 86 85 
4 84 85 16 20 
4 59 60 85 84 
4 24 27 52 53 
4 83 84 20 19 
4 58 59 84 83 
4 42 41 35 21 
4 79 80 81 82 
4 29 32 41 42 
4 79 82 13 3 
4 54 57 82 79 
4 6 22 28 30 
4 9 27 52 51 
4 81 82 13 14 
4 5 23 29 31 
4 4 9 51 50 
4 56 57 82 81 
4 80 81 14 11 
4 11 14 34 37 
4 37 34 20 19 
4 8 15 35 36 
4 36 35 21 18 
4 55 56 81 80 
4 79 80 11 3 
4 54 55 80 79 
4 10 26 33 39 
4 39 33 28 22 
4 9 27 32 38 
4 38 32 29 23 
4 75 76 77 78 
4 75 78 25 7 
4 27 32 41 45 
4 45 41 35 15 
4 26 33 40 44 
4 44 40 34 14 
4 50 53 78 75 
4 77 78 25 26 
4 52 53 78 77 
4 25 26 44 47 
4 47 44 14 13 
4 24 27 45 46 
4 46 45 15 12 
4 76 77 26 10 
4 28 30 48 43 
4 43 48 16 20 
4 51 52 77 76 
4 75 76 10 7 
4 29 31 49 42 
4 42 49 17 21 
4 50 51 76 75 
4 12 15 56 57 
4 0 12 57 54 
4 54 55 56 57 
4 18 21 59 58 
4 17 21 59 60 
4 1 17 60 61 
4 1 18 58 61 
4 58 59 60 61 
4 41 42 62 63 
4 35 41 63 64 
4 21 35 64 59 
4 21 42 62 59 
4 62 63 64 59 
4 29 32 66 65 
4 32 41 63 66 
4 29 42 62 65 
4 65 66 63 62 
4 5 23 68 67 
4 23 29 65 68 
4 29 31 69 65 
4 5 31 69 67 
4 67 68 65 69 
4 15 35 64 56 
4 35 36 70 64 
4 8 36 70 55 
4 55 56 64 70 
4 18 36 70 58 
4 70 64 59 58 
4 27 32 66 52 
4 32 38 71 66 
4 9 38 71 51 
4 51 52 66 71 
4 23 38 71 68 
4 71 66 65 68 
4 41 45 72 63 
4 27 45 72 52 
4 52 66 63 72 
4 15 45 72 56 
4 72 63 64 56 
4 45 46 73 72 
4 24 46 73 53 
4 53 52 72 73 
4 12 46 73 57 
4 73 72 56 57 
4 31 49 74 69 
4 42 49 74 62 
4 65 69 74 62 
4 17 49 74 60 
4 62 74 60 59 
4 62 65 90 87 
4 87 90 28 43 
4 90 91 88 87 
4 67 68 93 92 
4 92 93 22 6 
4 65 68 93 90 
4 90 93 22 28 
4 65 69 94 90 
4 90 94 30 28 
4 67 69 94 92 
4 92 94 30 6 
4 92 93 90 94 
4 56 64 89 81 
4 81 89 34 14 
4 64 70 95 89 
4 89 95 37 34 
4 55 70 95 80 
4 80 95 37 11 
4 80 81 89 95 
4 58 70 95 83 
4 83 95 37 19 
4 95 89 84 83 
4 52 66 91 77 
4 77 91 33 26 
4 66 71 96 91 
4 91 96 39 33 
4 51 71 96 76 
4 76 96 39 10 
4 76 77 91 96 
4 68 71 96 93 
4 93 96 39 22 
4 96 91 90 93 
4 63 72 97 88 
4 88 97 44 40 
4 52 72 97 77 
4 77 97 44 26 
4 77 91 88 97 
4 56 72 97 81 
4 81 97 44 14 
4 97 88 89 81 
4 72 73 98 97 
4 97 98 47 44 
4 53 73 98 78 
4 78 98 47 25 
4 78 77 97 98 
4 57 73 98 82 
4 82 98 47 13 
4 98 97 81 82 
4 69 74 99 94 
4 94 99 48 30 
4 62 74 99 87 
4 87 99 48 43 
4 90 94 99 87 
4 60 74 99 85 
4 85 99 48 16 
4 87 99 85 84 

CELL_TYPES 184
9 
9 
9 
9 
9 
9 
9 
9 
9 
9 
9 
9 
9 
9 
9 
9 
9 
9 
9 
9 
9 
9 
9 
9 
9 
9 
9 
9 
9 
9 
9 
9 
9 
9 
9 
9 
9 
9 
9 
9 
9 
9 
9 
9 
9 
9 
9 
9 
9 
9 
9 
9 
9 
9 
9 
9 
9 
9 
9 
9 
9 
9 
9 
9 
9 
9 
9 
9 
9 
9 
9 
9 
9 
9 
9 
9 
9 
9 
9 
9 
9 
9 
9 
9 
9 
9 
9 
9 
9 
9 
9 
9 
9 
9 
9 
9 
9 
9 
9 
9 
9 
9 
9 
9 
9 
9 
9 
9 
9 
9 
9 
9 
9 
9 
9 
9 
9 
9 
9 
9 
9 
9 
9 
9 
9 
9 
9 
9 
9 
9 
9 
9 
9 
9 
9 
9 
9 
9 
9 
9 
9 
9 
9 
9 
9 
9 
9 
9 
9 
9 
9 
9 
9 
9 
9 
9 
9 
9 
9 
9 
9 
9 
9 
9 
9 
9 
9 
9 
9 
9 
9 
9 
9 
9 
9 
9 
9 
9 
9 
9 
9 
9 
9 
9 
POINT_DATA 100
SCALARS GMDS_ID int 1
LOOKUP_TABLE default
0 1 2 3 4 5 6 7 8 9 10 11 12 13 14 15 16 17 18 19 20 21 22 23 24 25 26 27 28 29 30 31 32 33 34 35 36 37 38 39 40 41 42 43 44 45 46 47 48 49 50 51 52 53 54 55 56 57 58 59 60 61 62 63 64 65 66 67 68 69 70 71 72 73 74 75 76 77 78 79 80 81 82 83 84 85 86 87 88 89 90 91 92 93 94 95 96 97 98 99 
SCALARS geom_link_dim int 1
LOOKUP_TABLE default
1 1 1 1 1 1 1 1 2 2 2 2 2 2 3 3 2 2 2 2 3 3 2 2 2 2 3 3 3 3 2 2 3 3 3 3 2 2 2 2 3 3 3 3 3 3 2 2 2 2 2 3 0 3 2 3 0 3 3 0 3 2 0 0 0 0 0 2 3 3 3 3 0 3 3 2 3 0 3 2 3 0 3 3 0 3 2 0 0 0 0 0 2 3 3 3 3 0 3 3 
SCALARS geom_link_id int 1
LOOKUP_TABLE default
10 12 16 13 9 11 15 14 19 29 26 31 21 33 13 10 27 32 19 31 13 10 26 29 21 33 13 10 13 10 27 32 10 13 13 10 19 31 29 26 13 10 10 13 13 10 21 33 27 32 28 18 0 12 20 11 0 12 11 0 17 30 0 0 0 0 0 25 18 17 11 18 0 12 17 28 18 -1 12 20 11 -1 12 11 -1 17 30 -1 -1 -1 -1 -1 25 18 17 11 18 -1 12 17 


CELL_DATA 184
SCALARS GMDS_ID int 1
LOOKUP_TABLE default
0 1 2 4 5 6 7 8 9 10 11 12 13 14 15 17 18 19 20 21 22 23 24 26 27 28 29 30 31 32 34 35 36 37 38 39 40 42 43 44 45 46 47 49 50 51 52 53 54 55 56 57 58 59 60 61 62 63 64 65 66 67 68 69 70 71 72 73 74 75 76 77 78 79 80 81 82 83 84 85 87 89 90 92 94 96 98 99 101 103 105 107 108 110 112 114 115 117 119 121 123 124 126 128 130 131 133 134 136 138 140 141 143 144 146 148 149 151 152 154 156 157 159 160 162 164 165 167 168 169 170 171 172 173 174 175 176 177 178 179 180 181 182 183 184 185 186 187 188 189 190 191 192 193 194 195 196 197 198 199 200 201 202 203 204 205 206 207 208 209 210 211 212 213 214 215 216 217 218 219 220 221 222 223 

SCALARS geom_link_dim int 1
LOOKUP_TABLE default
0 0 0 0 0 0 0 0 0 0 0 0 0 0 0 0 0 0 0 0 0 0 0 0 0 0 0 0 0 0 0 0 0 0 0 0 0 0 0 0 0 0 0 0 0 0 0 0 0 0 0 0 0 0 0 0 0 0 0 0 0 0 0 0 0 0 0 0 0 0 0 0 0 0 0 0 0 0 0 0 0 0 0 0 0 0 0 0 0 0 0 0 0 0 0 0 0 0 0 0 0 0 0 0 0 0 0 0 0 0 0 0 0 0 0 0 0 0 0 0 0 0 0 0 0 0 0 0 0 0 0 0 0 0 0 0 0 0 0 0 0 0 0 0 0 0 0 0 0 0 0 0 0 0 0 0 0 0 0 0 0 0 0 0 0 0 0 0 0 0 0 0 0 0 0 0 0 0 0 0 0 0 0 0 

SCALARS geom_link_id int 1
LOOKUP_TABLE default
-1 0 -1 -1 -1 -1 0 -1 0 0 -1 -1 0 0 -1 0 0 -1 -1 0 -1 -1 0 -1 0 -1 -1 0 -1 -1 -1 -1 0 -1 -1 0 -1 0 -1 -1 0 0 -1 0 0 -1 -1 0 0 0 0 -1 -1 -1 0 0 0 0 -1 -1 0 0 0 0 -1 -1 -1 0 0 0 0 -1 0 0 -1 -1 0 0 -1 0 0 0 0 0 0 0 0 0 0 0 0 0 0 0 0 0 0 0 0 0 0 0 0 0 0 0 0 0 0 0 0 0 0 0 0 0 0 0 0 0 0 0 0 0 0 0 0 0 -1 -1 -1 -1 -1 -1 -1 -1 -1 -1 -1 -1 -1 -1 -1 -1 -1 -1 -1 -1 -1 -1 -1 -1 -1 -1 -1 -1 -1 -1 -1 -1 -1 -1 -1 -1 -1 -1 -1 -1 -1 -1 -1 -1 -1 -1 -1 -1 -1 -1 -1 -1 -1 -1 -1 -1 

