# vtk DataFile Version 3.0
Generated by GMDS VTK Writer

ASCII
DATASET UNSTRUCTURED_GRID
POINTS 60 float
5 0 0
5 0 -5
10 10 -5
10 -5 -5
-5 -5 10
-5 10 10
10 10 10
10 -5 10
-5 5 10
10 5 10
10 5 -5
-5 -5 -8.88178419700125e-16
10 -5 -8.88178419700125e-16
10 5 0
-5 5 0
10 10 -8.88178419700125e-16
-5 10 -8.88178419700125e-16
-8.88178419700125e-16 -5 -5
0 5 -5
0 5 0
0 -5 0
0 5 10
-8.88178419700125e-16 -5 10
-8.88178419700125e-16 10 -5
0 10 0
-8.88178419700125e-16 10 10
-5 0 0
0 0 0
0 0 -5
10 0 0
10 -4.44089209850063e-16 -5
-5 -4.44089209850063e-16 10
0 0 10
10 -4.44089209850063e-16 10
-5 10 5
-5 5 5
-4.44089209850063e-16 5 5
0 10 5
10 5 5
10 10 5
-5 -5 5
0 -5 5
-2.22044604925031e-16 0 5
-5 0 5
10 -5 5
10 0 5
5 5 0
5 5 -5
5 -5 -5
5 -5 0
5 5 5
5 10 5
5 10 0
5 5 10
5 10 10
5 10 -5
5 -5 10
5 0 10
5 0 5
5 -5 5

CELLS 98 490
4 6 9 38 39 
4 47 46 13 10 
4 3 12 29 30 
4 34 35 36 37 
4 34 37 24 16 
4 46 0 29 13 
4 5 25 37 34 
4 28 27 19 18 
4 17 20 27 28 
4 36 37 24 19 
4 21 25 37 36 
4 26 27 19 14 
4 2 10 13 15 
4 19 36 50 46 
4 11 20 27 26 
4 19 27 0 46 
4 46 52 15 13 
4 18 19 46 47 
4 35 36 19 14 
4 19 24 52 46 
4 52 51 39 15 
4 8 21 36 35 
4 34 35 14 16 
4 24 37 51 52 
4 50 51 39 38 
4 5 8 35 34 
4 0 1 30 29 
4 14 16 24 19 
4 27 28 1 0 
4 23 18 19 24 
4 5 8 21 25 
4 36 37 51 50 
4 48 49 0 1 
4 48 1 30 3 
4 30 29 13 10 
4 17 28 1 48 
4 49 0 29 12 
4 20 27 0 49 
4 48 49 12 3 
4 4 22 32 31 
4 31 32 21 8 
4 17 20 49 48 
4 1 0 46 47 
4 47 1 30 10 
4 18 28 1 47 
4 39 38 13 15 
4 4 22 41 40 
4 40 41 20 11 
4 22 32 42 41 
4 41 42 27 20 
4 31 32 42 43 
4 43 42 27 26 
4 4 31 43 40 
4 40 43 26 11 
4 40 41 42 43 
4 21 32 42 36 
4 36 42 27 19 
4 8 31 43 35 
4 35 43 26 14 
4 43 42 36 35 
4 7 33 45 44 
4 44 45 29 12 
4 9 33 45 38 
4 38 45 29 13 
4 46 50 38 13 
4 50 51 52 46 
4 21 25 54 53 
4 53 54 6 9 
4 25 37 51 54 
4 54 51 39 6 
4 21 36 50 53 
4 53 50 38 9 
4 53 54 51 50 
4 18 23 55 47 
4 47 55 2 10 
4 23 24 52 55 
4 55 52 15 2 
4 55 47 46 52 
4 22 32 57 56 
4 56 57 33 7 
4 32 42 58 57 
4 57 58 45 33 
4 41 42 58 59 
4 59 58 45 44 
4 22 41 59 56 
4 56 59 44 7 
4 56 57 58 59 
4 27 42 58 0 
4 0 58 45 29 
4 20 41 59 49 
4 49 59 44 12 
4 59 58 0 49 
4 21 32 57 53 
4 53 57 33 9 
4 36 42 58 50 
4 50 58 45 38 
4 53 57 58 50 
4 50 58 0 46 

CELL_TYPES 98
9 
9 
9 
9 
9 
9 
9 
9 
9 
9 
9 
9 
9 
9 
9 
9 
9 
9 
9 
9 
9 
9 
9 
9 
9 
9 
9 
9 
9 
9 
9 
9 
9 
9 
9 
9 
9 
9 
9 
9 
9 
9 
9 
9 
9 
9 
9 
9 
9 
9 
9 
9 
9 
9 
9 
9 
9 
9 
9 
9 
9 
9 
9 
9 
9 
9 
9 
9 
9 
9 
9 
9 
9 
9 
9 
9 
9 
9 
9 
9 
9 
9 
9 
9 
9 
9 
9 
9 
9 
9 
9 
9 
9 
9 
9 
9 
9 
9 
POINT_DATA 60
SCALARS GMDS_ID int 1
LOOKUP_TABLE default
0 1 2 3 4 5 6 7 9 10 11 12 13 14 15 16 17 18 19 20 21 22 23 24 25 26 28 29 30 31 32 33 34 35 36 37 38 39 40 41 42 43 44 45 46 47 48 49 50 51 52 53 54 55 56 57 58 59 60 61 
SCALARS geom_link_dim int 1
LOOKUP_TABLE default
0 1 0 0 0 0 0 0 0 0 0 0 0 1 1 0 0 0 1 1 1 1 0 0 1 0 1 1 1 1 0 0 1 0 0 1 0 1 1 0 0 1 0 1 0 1 0 1 0 1 0 1 1 1 0 0 0 1 0 1 
SCALARS geom_link_id int 1
LOOKUP_TABLE default
0 25 -1 -1 -1 -1 -1 -1 -1 -1 -1 -1 -1 21 5 -1 -1 -1 18 1 28 16 -1 -1 4 -1 11 12 19 29 -1 -1 20 -1 -1 6 0 3 22 -1 -1 27 0 13 -1 30 0 17 -1 31 0 7 9 15 -1 -1 -1 24 0 32 


CELL_DATA 98
SCALARS GMDS_ID int 1
LOOKUP_TABLE default
0 2 3 6 11 13 14 15 16 17 18 19 20 21 22 24 25 26 28 29 30 31 32 33 34 35 36 38 40 42 43 45 46 47 48 52 53 54 55 56 57 58 59 60 63 64 68 69 70 71 72 73 74 75 76 77 78 79 80 81 86 87 89 90 92 93 94 95 96 97 98 99 100 101 102 103 104 105 106 107 108 109 110 111 112 113 114 115 116 117 118 119 120 121 122 123 124 125 

SCALARS geom_link_dim int 1
LOOKUP_TABLE default
0 0 0 0 0 0 0 0 0 0 0 0 0 0 0 0 0 0 0 0 0 0 0 0 0 0 0 0 0 0 0 0 0 0 0 0 0 0 0 0 0 0 0 0 0 0 0 0 0 0 0 0 0 0 0 0 0 0 0 0 0 0 0 0 0 0 0 0 0 0 0 0 0 0 0 0 0 0 0 0 0 0 0 0 0 0 0 0 0 0 0 0 0 0 0 0 0 0 

SCALARS geom_link_id int 1
LOOKUP_TABLE default
0 0 0 0 0 0 0 0 0 0 0 0 0 0 0 0 0 0 0 0 0 0 0 0 0 0 0 0 0 0 0 0 0 0 0 0 0 0 0 0 0 0 0 0 0 0 0 0 0 0 0 0 0 0 0 0 0 0 0 0 0 0 0 0 0 0 0 0 0 0 0 0 0 0 0 0 0 0 0 0 0 0 0 0 0 0 0 0 0 0 0 0 0 0 0 0 0 0 

