# vtk DataFile Version 3.0
Generated by GMDS VTK Writer

ASCII
DATASET UNSTRUCTURED_GRID
POINTS 26 float
0 0 0
0 10 0
10 10 0
0 0 10
0 10 10
10 10 10
10 0 10
0 5 0
0 5 10
10 5 10
10 5 0
0 0 5
10 0 5
10 5 5
0 5 5
10 10 5
0 10 5
5 0 0
5 5 0
5 5 5
5 0 5
5 5 10
5 0 10
5 10 0
5 10 5
5 10 10

CELLS 33 165
4 12 13 9 6 
4 0 11 20 17 
4 20 19 13 12 
4 11 14 19 20 
4 18 19 13 10 
4 7 14 19 18 
4 0 7 18 17 
4 0 7 14 11 
4 11 14 8 3 
4 2 10 13 15 
4 15 13 9 5 
4 1 7 14 16 
4 16 14 8 4 
4 17 18 19 20 
4 8 14 19 21 
4 21 19 13 9 
4 3 8 21 22 
4 22 21 9 6 
4 3 11 20 22 
4 22 20 12 6 
4 20 19 21 22 
4 1 7 18 23 
4 23 18 10 2 
4 14 16 24 19 
4 19 24 15 13 
4 1 16 24 23 
4 23 24 15 2 
4 23 18 19 24 
4 4 8 21 25 
4 25 21 9 5 
4 4 16 24 25 
4 25 24 15 5 
4 24 19 21 25 

CELL_TYPES 33
9 
9 
9 
9 
9 
9 
9 
9 
9 
9 
9 
9 
9 
9 
9 
9 
9 
9 
9 
9 
9 
9 
9 
9 
9 
9 
9 
9 
9 
9 
9 
9 
9 
POINT_DATA 26
SCALARS GMDS_ID int 1
LOOKUP_TABLE default
0 1 2 4 5 6 7 8 9 10 11 12 13 14 15 16 17 18 19 20 21 22 23 24 25 26 
SCALARS geom_link_dim_0 int 1
LOOKUP_TABLE default
0 0 0 0 0 0 0 0 0 0 0 0 0 0 0 0 0 0 0 0 0 0 0 0 0 0 
SCALARS geom_link_id_0 int 1
LOOKUP_TABLE default
0 0 0 0 0 0 0 0 0 0 0 0 0 0 0 0 0 0 0 0 0 0 0 0 0 0 


CELL_DATA 33
SCALARS GMDS_ID int 1
LOOKUP_TABLE default
0 2 4 6 7 10 14 17 18 20 21 24 25 28 29 30 31 32 33 34 35 36 37 38 39 40 41 42 43 44 45 46 47 

SCALARS geom_link_dim_0 int 1
LOOKUP_TABLE default
0 0 0 0 0 0 0 0 0 0 0 0 0 0 0 0 0 0 0 0 0 0 0 0 0 0 0 0 0 0 0 0 0 

SCALARS geom_link_id_0 int 1
LOOKUP_TABLE default
0 0 0 0 0 0 0 0 0 0 0 0 0 0 0 0 0 0 0 0 0 0 0 0 0 0 0 0 0 0 0 0 0 

