# vtk DataFile Version 3.0
Generated by GMDS VTK Writer

ASCII
DATASET UNSTRUCTURED_GRID
POINTS 45 float
5 0 0
5 0 -5
10 10 -5
10 -5 10
-5 5 10
10 5 10
10 5 -5
-5 -5 -8.88178419700125e-16
10 5 0
-5 5 0
10 10 -8.88178419700125e-16
0 5 -5
0 5 0
0 -5 0
0 5 10
0 10 0
-5 0 0
0 0 0
0 0 -5
10 0 0
-5 -4.44089209850063e-16 10
0 0 10
10 -4.44089209850063e-16 10
-5 5 5
0 5 5
0 10 5
10 5 5
-5 -5 5
0 -5 5
0 0 5
-5 0 5
10 -5 5
10 0 5
5 5 0
5 5 -5
5 -5 0
5 5 5
5 10 5
5 10 0
5 5 10
5 10 -5
5 -5 10
5 0 10
5 0 5
5 -5 5

CELLS 59 295
4 34 33 8 6 
4 33 0 19 8 
4 18 17 12 11 
4 24 25 15 12 
4 16 17 12 9 
4 2 6 8 10 
4 12 24 36 33 
4 7 13 17 16 
4 12 17 0 33 
4 33 38 10 8 
4 11 12 33 34 
4 23 24 12 9 
4 12 15 38 33 
4 4 14 24 23 
4 15 25 37 38 
4 17 18 1 0 
4 24 25 37 36 
4 13 17 0 35 
4 20 21 14 4 
4 1 0 33 34 
4 11 18 1 34 
4 27 28 13 7 
4 28 29 17 13 
4 20 21 29 30 
4 30 29 17 16 
4 27 30 16 7 
4 27 28 29 30 
4 14 21 29 24 
4 24 29 17 12 
4 4 20 30 23 
4 23 30 16 9 
4 30 29 24 23 
4 3 22 32 31 
4 5 22 32 26 
4 26 32 19 8 
4 33 36 26 8 
4 36 37 38 33 
4 14 24 36 39 
4 39 36 26 5 
4 34 40 2 6 
4 40 38 10 2 
4 40 34 33 38 
4 41 42 22 3 
4 21 29 43 42 
4 42 43 32 22 
4 28 29 43 44 
4 44 43 32 31 
4 41 44 31 3 
4 41 42 43 44 
4 17 29 43 0 
4 0 43 32 19 
4 13 28 44 35 
4 44 43 0 35 
4 14 21 42 39 
4 39 42 22 5 
4 24 29 43 36 
4 36 43 32 26 
4 39 42 43 36 
4 36 43 0 33 

CELL_TYPES 59
9 
9 
9 
9 
9 
9 
9 
9 
9 
9 
9 
9 
9 
9 
9 
9 
9 
9 
9 
9 
9 
9 
9 
9 
9 
9 
9 
9 
9 
9 
9 
9 
9 
9 
9 
9 
9 
9 
9 
9 
9 
9 
9 
9 
9 
9 
9 
9 
9 
9 
9 
9 
9 
9 
9 
9 
9 
9 
9 
POINT_DATA 45
SCALARS GMDS_ID int 1
LOOKUP_TABLE default
0 1 2 7 9 10 11 12 14 15 16 19 20 21 22 25 28 29 30 31 33 34 35 37 38 39 40 42 43 44 45 46 47 48 49 51 52 53 54 55 57 58 59 60 61 
SCALARS geom_link_dim int 1
LOOKUP_TABLE default
1 1 0 0 0 0 0 0 1 1 0 1 1 1 1 1 1 1 1 1 0 1 0 1 1 1 1 0 1 1 1 0 1 1 1 1 1 1 1 1 0 0 1 1 1 
SCALARS geom_link_id int 1
LOOKUP_TABLE default
26 25 -1 -1 -1 -1 -1 -1 21 5 -1 18 1 28 16 4 11 12 19 29 -1 20 -1 6 2 3 22 -1 27 14 13 -1 30 10 17 31 8 7 9 15 -1 -1 24 23 32 


CELL_DATA 59
SCALARS GMDS_ID int 1
LOOKUP_TABLE default
2 13 15 17 19 20 21 22 24 25 26 28 29 31 33 40 45 54 57 59 63 69 71 72 73 75 76 77 78 79 80 81 86 89 90 92 93 98 99 102 104 105 107 108 109 110 111 113 114 115 116 117 119 120 121 122 123 124 125 

SCALARS geom_link_dim int 1
LOOKUP_TABLE default
0 0 0 0 0 0 0 0 0 0 0 0 0 0 0 0 0 0 0 0 0 0 0 0 0 0 0 0 0 0 0 0 0 0 0 0 0 0 0 0 0 0 0 0 0 0 0 0 0 0 0 0 0 0 0 0 0 0 0 

SCALARS geom_link_id int 1
LOOKUP_TABLE default
0 0 0 0 0 0 0 0 0 0 0 0 0 0 0 0 0 0 0 0 0 0 0 0 0 0 0 0 0 0 0 0 0 0 0 0 0 0 0 0 0 0 0 0 0 0 0 0 0 0 0 0 0 0 0 0 0 0 0 

