# vtk DataFile Version 3.0
Generated by GMDS VTK Writer

ASCII
DATASET UNSTRUCTURED_GRID
POINTS 50 float
5 0 0
5 0 -5
10 10 -5
-5 -5 10
10 -5 10
-5 5 10
10 5 10
10 5 -5
-5 -5 -8.88178419700125e-16
10 5 0
-5 5 0
10 10 -8.88178419700125e-16
-8.88178419700125e-16 -5 -5
0 5 -5
0 5 0
0 -5 0
0 5 10
-8.88178419700125e-16 -5 10
-8.88178419700125e-16 10 -5
0 10 0
-5 0 0
0 0 0
0 0 -5
10 0 0
-5 -4.44089209850063e-16 10
0 0 10
10 -4.44089209850063e-16 10
-5 5 5
0 5 5
0 10 5
10 5 5
-5 -5 5
0 -5 5
0 0 5
-5 0 5
10 -5 5
10 0 5
5 5 0
5 5 -5
5 -5 -5
5 -5 0
5 5 5
5 10 5
5 10 0
5 5 10
5 10 -5
5 -5 10
5 0 10
5 0 5
5 -5 5

CELLS 70 350
4 38 37 9 7 
4 37 0 23 9 
4 22 21 14 13 
4 12 15 21 22 
4 28 29 19 14 
4 20 21 14 10 
4 2 7 9 11 
4 14 28 41 37 
4 8 15 21 20 
4 14 21 0 37 
4 37 43 11 9 
4 13 14 37 38 
4 27 28 14 10 
4 14 19 43 37 
4 5 16 28 27 
4 19 29 42 43 
4 21 22 1 0 
4 18 13 14 19 
4 28 29 42 41 
4 39 40 0 1 
4 12 22 1 39 
4 15 21 0 40 
4 3 17 25 24 
4 24 25 16 5 
4 12 15 40 39 
4 1 0 37 38 
4 13 22 1 38 
4 3 17 32 31 
4 31 32 15 8 
4 17 25 33 32 
4 32 33 21 15 
4 24 25 33 34 
4 34 33 21 20 
4 3 24 34 31 
4 31 34 20 8 
4 31 32 33 34 
4 16 25 33 28 
4 28 33 21 14 
4 5 24 34 27 
4 27 34 20 10 
4 34 33 28 27 
4 4 26 36 35 
4 6 26 36 30 
4 30 36 23 9 
4 37 41 30 9 
4 41 42 43 37 
4 16 28 41 44 
4 44 41 30 6 
4 13 18 45 38 
4 38 45 2 7 
4 18 19 43 45 
4 45 43 11 2 
4 45 38 37 43 
4 46 47 26 4 
4 25 33 48 47 
4 47 48 36 26 
4 32 33 48 49 
4 49 48 36 35 
4 46 49 35 4 
4 46 47 48 49 
4 21 33 48 0 
4 0 48 36 23 
4 15 32 49 40 
4 49 48 0 40 
4 16 25 47 44 
4 44 47 26 6 
4 28 33 48 41 
4 41 48 36 30 
4 44 47 48 41 
4 41 48 0 37 

CELL_TYPES 70
9 
9 
9 
9 
9 
9 
9 
9 
9 
9 
9 
9 
9 
9 
9 
9 
9 
9 
9 
9 
9 
9 
9 
9 
9 
9 
9 
9 
9 
9 
9 
9 
9 
9 
9 
9 
9 
9 
9 
9 
9 
9 
9 
9 
9 
9 
9 
9 
9 
9 
9 
9 
9 
9 
9 
9 
9 
9 
9 
9 
9 
9 
9 
9 
9 
9 
9 
9 
9 
9 
POINT_DATA 50
SCALARS GMDS_ID int 1
LOOKUP_TABLE default
0 1 2 4 7 9 10 11 12 14 15 16 18 19 20 21 22 23 24 25 28 29 30 31 33 34 35 37 38 39 40 42 43 44 45 46 47 48 49 50 51 52 53 54 55 57 58 59 60 61 
SCALARS geom_link_dim int 1
LOOKUP_TABLE default
1 1 0 0 0 0 0 0 0 1 1 0 0 1 1 1 1 0 0 1 1 1 1 1 0 1 0 1 1 1 1 0 1 1 1 0 1 1 1 0 1 1 1 1 1 0 0 1 1 1 
SCALARS geom_link_id int 1
LOOKUP_TABLE default
26 25 -1 -1 -1 -1 -1 -1 -1 21 5 -1 -1 18 1 28 16 -1 -1 4 11 12 19 29 -1 20 -1 6 2 3 22 -1 27 14 13 -1 30 10 17 -1 31 8 7 9 15 -1 -1 24 23 32 


CELL_DATA 70
SCALARS GMDS_ID int 1
LOOKUP_TABLE default
2 13 15 16 17 19 20 21 22 24 25 26 28 29 31 33 40 42 45 46 52 54 56 57 58 59 63 68 69 70 71 72 73 74 75 76 77 78 79 80 81 86 89 90 92 93 98 99 101 102 103 104 105 107 108 109 110 111 113 114 115 116 117 119 120 121 122 123 124 125 

SCALARS geom_link_dim int 1
LOOKUP_TABLE default
0 0 0 0 0 0 0 0 0 0 0 0 0 0 0 0 0 0 0 0 0 0 0 0 0 0 0 0 0 0 0 0 0 0 0 0 0 0 0 0 0 0 0 0 0 0 0 0 0 0 0 0 0 0 0 0 0 0 0 0 0 0 0 0 0 0 0 0 0 0 

SCALARS geom_link_id int 1
LOOKUP_TABLE default
0 0 0 0 0 0 0 0 0 0 0 0 0 0 0 0 0 0 0 0 0 0 0 0 0 0 0 0 0 0 0 0 0 0 0 0 0 0 0 0 0 0 0 0 0 0 0 0 0 0 0 0 0 0 0 0 0 0 0 0 0 0 0 0 0 0 0 0 0 0 

