# vtk DataFile Version 3.0
Generated by GMDS VTK Writer

ASCII
DATASET UNSTRUCTURED_GRID
POINTS 50 float
0 0 0
0 10 0
10 10 0
10 0 0
0 0 10
0 10 10
10 10 10
10 0 10
0 1 0
0 1 10
10 1 10
10 1 0
0 0 1
10 0 1
10 1 1
0 1 1
10 10 1
0 10 1
0 6 0
10 6 0
10 6 1
0 6 1
10 6 10
0 6 10
0 0 8
10 0 8
10 1 8
0 1 8
10 6 8
0 6 8
10 10 8
0 10 8
0 4 8
10 4 8
10 4 1
0 4 1
0 4 0
10 4 0
0 4 10
10 4 10
10 4 4
0 4 4
0 6 4
10 6 4
10 1 4
0 1 4
0 0 4
10 0 4
10 10 4
0 10 4

CELLS 72 360
4 8 11 37 36 
4 3 11 14 13 
4 26 27 45 44 
4 20 21 17 16 
4 0 3 13 12 
4 40 41 42 43 
4 19 20 16 2 
4 4 7 10 9 
4 4 9 27 24 
4 43 40 34 20 
4 18 19 2 1 
4 0 3 11 8 
4 28 33 40 43 
4 8 11 14 15 
4 0 8 15 12 
4 12 13 14 15 
4 9 10 26 27 
4 1 2 16 17 
4 34 35 21 20 
4 7 10 26 25 
4 4 7 25 24 
4 18 21 17 1 
4 18 19 20 21 
4 14 15 35 34 
4 43 42 21 20 
4 23 22 6 5 
4 33 32 29 28 
4 26 27 32 33 
4 24 25 26 27 
4 28 29 42 43 
4 42 41 35 21 
4 22 23 29 28 
4 29 32 41 42 
4 41 40 34 35 
4 32 33 40 41 
4 6 22 28 30 
4 5 6 30 31 
4 5 23 29 31 
4 29 28 30 31 
4 36 37 19 18 
4 11 14 34 37 
4 37 34 20 19 
4 8 15 35 36 
4 36 35 21 18 
4 36 37 34 35 
4 9 10 39 38 
4 38 39 22 23 
4 10 26 33 39 
4 39 33 28 22 
4 9 27 32 38 
4 38 32 29 23 
4 38 39 33 32 
4 44 45 15 14 
4 27 32 41 45 
4 45 41 35 15 
4 26 33 40 44 
4 44 40 34 14 
4 44 45 41 40 
4 24 25 47 46 
4 46 47 13 12 
4 25 26 44 47 
4 47 44 14 13 
4 24 27 45 46 
4 46 45 15 12 
4 46 47 44 45 
4 28 30 48 43 
4 43 48 16 20 
4 30 31 49 48 
4 48 49 17 16 
4 29 31 49 42 
4 42 49 17 21 
4 42 43 48 49 

CELL_TYPES 72
9 
9 
9 
9 
9 
9 
9 
9 
9 
9 
9 
9 
9 
9 
9 
9 
9 
9 
9 
9 
9 
9 
9 
9 
9 
9 
9 
9 
9 
9 
9 
9 
9 
9 
9 
9 
9 
9 
9 
9 
9 
9 
9 
9 
9 
9 
9 
9 
9 
9 
9 
9 
9 
9 
9 
9 
9 
9 
9 
9 
9 
9 
9 
9 
9 
9 
9 
9 
9 
9 
9 
9 
POINT_DATA 50
SCALARS GMDS_ID int 1
LOOKUP_TABLE default
0 1 2 3 4 5 6 7 8 9 10 11 12 13 14 15 16 17 18 19 20 21 22 23 24 25 26 27 28 29 30 31 32 33 34 35 36 37 38 39 40 41 42 43 44 45 46 47 48 49 
SCALARS geom_link_dim int 1
LOOKUP_TABLE default
1 1 1 1 1 1 1 1 2 2 2 2 2 2 3 3 2 2 2 2 3 3 2 2 2 2 3 3 3 3 2 2 3 3 3 3 2 2 2 2 3 3 3 3 3 3 2 2 2 2 
SCALARS geom_link_id int 1
LOOKUP_TABLE default
10 12 16 13 9 11 15 14 19 29 26 31 21 33 13 10 27 32 19 31 13 10 26 29 21 33 13 10 13 10 27 32 10 13 13 10 19 31 29 26 13 10 10 13 13 10 21 33 27 32 


CELL_DATA 72
SCALARS GMDS_ID int 1
LOOKUP_TABLE default
0 1 2 4 5 6 7 8 9 10 11 12 14 15 17 19 20 22 23 24 26 27 28 29 31 32 34 35 37 38 39 40 42 43 44 45 47 49 51 52 53 54 55 56 57 58 59 60 61 62 63 64 65 66 67 68 69 70 71 72 73 74 75 76 77 78 79 80 81 82 83 84 

SCALARS geom_link_dim int 1
LOOKUP_TABLE default
0 0 0 0 0 0 0 0 0 0 0 0 0 0 0 0 0 0 0 0 0 0 0 0 0 0 0 0 0 0 0 0 0 0 0 0 0 0 0 0 0 0 0 0 0 0 0 0 0 0 0 0 0 0 0 0 0 0 0 0 0 0 0 0 0 0 0 0 0 0 0 0 

SCALARS geom_link_id int 1
LOOKUP_TABLE default
0 0 -1 0 0 -1 0 0 0 -1 0 0 -1 0 0 0 0 0 0 0 0 0 0 0 -1 0 0 0 0 -1 -1 0 -1 -1 -1 0 0 0 0 0 0 0 0 0 0 0 0 0 0 0 0 0 -1 -1 -1 -1 -1 -1 -1 -1 -1 -1 -1 -1 -1 -1 -1 -1 -1 -1 -1 -1 

