# vtk DataFile Version 3.0
Generated by GMDS VTK Writer

ASCII
DATASET UNSTRUCTURED_GRID
POINTS 43 float
5 0 0
5 0 -5
10 10 -5
10 -5 10
10 5 10
10 5 -5
-5 -5 -8.88178419700125e-16
10 5 0
-5 5 0
10 10 -8.88178419700125e-16
0 5 -5
0 5 0
0 -5 0
0 5 10
0 10 0
-5 0 0
0 0 0
0 0 -5
10 0 0
0 0 10
10 -4.44089209850063e-16 10
-5 5 5
0 5 5
0 10 5
10 5 5
-5 -5 5
0 -5 5
0 0 5
-5 0 5
10 -5 5
10 0 5
5 5 0
5 5 -5
5 -5 0
5 5 5
5 10 5
5 10 0
5 5 10
5 10 -5
5 -5 10
5 0 10
5 0 5
5 -5 5

CELLS 55 275
4 32 31 7 5 
4 31 0 18 7 
4 17 16 11 10 
4 22 23 14 11 
4 15 16 11 8 
4 2 5 7 9 
4 11 22 34 31 
4 6 12 16 15 
4 11 16 0 31 
4 31 36 9 7 
4 10 11 31 32 
4 21 22 11 8 
4 11 14 36 31 
4 14 23 35 36 
4 16 17 1 0 
4 22 23 35 34 
4 12 16 0 33 
4 1 0 31 32 
4 10 17 1 32 
4 25 26 12 6 
4 26 27 16 12 
4 28 27 16 15 
4 25 28 15 6 
4 25 26 27 28 
4 13 19 27 22 
4 22 27 16 11 
4 21 28 15 8 
4 28 27 22 21 
4 3 20 30 29 
4 4 20 30 24 
4 24 30 18 7 
4 31 34 24 7 
4 34 35 36 31 
4 13 22 34 37 
4 37 34 24 4 
4 32 38 2 5 
4 38 36 9 2 
4 38 32 31 36 
4 39 40 20 3 
4 19 27 41 40 
4 40 41 30 20 
4 26 27 41 42 
4 42 41 30 29 
4 39 42 29 3 
4 39 40 41 42 
4 16 27 41 0 
4 0 41 30 18 
4 12 26 42 33 
4 42 41 0 33 
4 13 19 40 37 
4 37 40 20 4 
4 22 27 41 34 
4 34 41 30 24 
4 37 40 41 34 
4 34 41 0 31 

CELL_TYPES 55
9 
9 
9 
9 
9 
9 
9 
9 
9 
9 
9 
9 
9 
9 
9 
9 
9 
9 
9 
9 
9 
9 
9 
9 
9 
9 
9 
9 
9 
9 
9 
9 
9 
9 
9 
9 
9 
9 
9 
9 
9 
9 
9 
9 
9 
9 
9 
9 
9 
9 
9 
9 
9 
9 
9 
POINT_DATA 43
SCALARS GMDS_ID int 1
LOOKUP_TABLE default
0 1 2 7 10 11 12 14 15 16 19 20 21 22 25 28 29 30 31 34 35 37 38 39 40 42 43 44 45 46 47 48 49 51 52 53 54 55 57 58 59 60 61 
SCALARS geom_link_dim int 1
LOOKUP_TABLE default
1 1 0 0 0 0 0 1 1 0 1 1 1 1 1 1 1 1 1 1 0 1 1 1 1 0 1 1 1 0 1 1 1 1 1 1 1 1 0 0 1 1 1 
SCALARS geom_link_id int 1
LOOKUP_TABLE default
26 25 -1 -1 -1 -1 -1 21 5 -1 18 1 28 16 4 11 12 19 29 20 -1 6 2 3 22 -1 27 14 13 -1 30 10 17 31 8 7 9 15 -1 -1 24 23 32 


CELL_DATA 55
SCALARS GMDS_ID int 1
LOOKUP_TABLE default
2 13 15 17 19 20 21 22 24 25 26 28 29 33 40 45 54 59 63 69 71 73 75 76 77 78 80 81 86 89 90 92 93 98 99 102 104 105 107 108 109 110 111 113 114 115 116 117 119 120 121 122 123 124 125 

SCALARS geom_link_dim int 1
LOOKUP_TABLE default
0 0 0 0 0 0 0 0 0 0 0 0 0 0 0 0 0 0 0 0 0 0 0 0 0 0 0 0 0 0 0 0 0 0 0 0 0 0 0 0 0 0 0 0 0 0 0 0 0 0 0 0 0 0 0 

SCALARS geom_link_id int 1
LOOKUP_TABLE default
0 0 0 0 0 0 0 0 0 0 0 0 0 0 0 0 0 0 0 0 0 0 0 0 0 0 0 0 0 0 0 0 0 0 0 0 0 0 0 0 0 0 0 0 0 0 0 0 0 0 0 0 0 0 0 

