# vtk DataFile Version 3.0
Generated by GMDS VTK Writer

ASCII
DATASET UNSTRUCTURED_GRID
POINTS 36 float
-5 -5 -5
-5 10 -5
10 10 -5
10 -5 -5
-5 -5 10
-5 10 10
10 10 10
10 -5 10
-5 5 -5
-5 5 10
10 5 10
10 5 -5
-5 -5 -8.88178419700125e-16
10 -5 -8.88178419700125e-16
10 5 0
-5 5 0
10 10 -8.88178419700125e-16
-5 10 -8.88178419700125e-16
-8.88178419700125e-16 -5 -5
0 5 -5
-8.88178419700125e-16 5 0
0 -5 0
0 5 10
-8.88178419700125e-16 -5 10
-8.88178419700125e-16 10 -5
0 10 0
-8.88178419700125e-16 10 10
-5 -4.44089209850063e-16 -5
-5 0 0
-4.44089209850063e-16 0 0
0 0 -5
10 0 0
10 -4.44089209850063e-16 -5
-5 -4.44089209850063e-16 10
0 0 10
10 -4.44089209850063e-16 10

CELLS 52 260
4 0 12 21 18 
4 3 13 31 32 
4 31 29 20 14 
4 19 20 14 11 
4 13 21 29 31 
4 27 28 29 30 
4 8 15 20 19 
4 27 30 19 8 
4 0 18 30 27 
4 30 29 20 19 
4 18 21 29 30 
4 28 29 20 15 
4 2 11 14 16 
4 16 14 10 6 
4 12 21 29 28 
4 27 28 15 8 
4 1 8 15 17 
4 17 15 9 5 
4 0 12 28 27 
4 18 21 13 3 
4 9 15 20 22 
4 22 20 14 10 
4 4 12 21 23 
4 23 21 13 7 
4 1 8 19 24 
4 24 19 11 2 
4 15 17 25 20 
4 20 25 16 14 
4 1 17 25 24 
4 24 25 16 2 
4 24 19 20 25 
4 5 9 22 26 
4 26 22 10 6 
4 5 17 25 26 
4 26 25 16 6 
4 25 20 22 26 
4 32 31 14 11 
4 3 18 30 32 
4 32 30 19 11 
4 30 29 31 32 
4 4 12 28 33 
4 33 28 15 9 
4 21 23 34 29 
4 29 34 22 20 
4 4 23 34 33 
4 33 34 22 9 
4 33 28 29 34 
4 7 13 31 35 
4 35 31 14 10 
4 7 23 34 35 
4 35 34 22 10 
4 34 29 31 35 

CELL_TYPES 52
9 
9 
9 
9 
9 
9 
9 
9 
9 
9 
9 
9 
9 
9 
9 
9 
9 
9 
9 
9 
9 
9 
9 
9 
9 
9 
9 
9 
9 
9 
9 
9 
9 
9 
9 
9 
9 
9 
9 
9 
9 
9 
9 
9 
9 
9 
9 
9 
9 
9 
9 
9 
POINT_DATA 36
SCALARS GMDS_ID int 1
LOOKUP_TABLE default
0 1 2 3 4 5 6 7 8 9 10 11 12 13 14 15 16 17 18 19 20 21 22 23 24 25 26 27 28 29 30 31 32 33 34 35 
SCALARS geom_link_dim int 1
LOOKUP_TABLE default
0 0 0 0 0 0 0 0 0 0 0 0 0 0 1 1 0 0 0 1 0 1 1 0 0 1 0 0 1 0 1 1 0 0 1 0 
SCALARS geom_link_id int 1
LOOKUP_TABLE default
-1 -1 -1 -1 -1 -1 -1 -1 -1 -1 -1 -1 -1 -1 21 5 -1 -1 -1 18 0 28 16 -1 -1 4 -1 -1 11 -1 19 29 -1 -1 20 -1 


CELL_DATA 52
SCALARS GMDS_ID int 1
LOOKUP_TABLE default
2 3 5 7 8 9 10 12 13 15 16 19 20 21 22 23 24 25 26 27 29 30 33 34 36 37 38 39 40 41 42 43 44 45 46 47 48 49 50 51 52 53 54 55 56 57 58 59 60 61 62 63 

SCALARS geom_link_dim int 1
LOOKUP_TABLE default
0 0 0 0 0 0 0 0 0 0 0 0 0 0 0 0 0 0 0 0 0 0 0 0 0 0 0 0 0 0 0 0 0 0 0 0 0 0 0 0 0 0 0 0 0 0 0 0 0 0 0 0 

SCALARS geom_link_id int 1
LOOKUP_TABLE default
0 -1 -1 0 -1 -1 0 -1 -1 -1 -1 -1 0 0 -1 -1 0 0 -1 0 0 0 0 0 0 0 0 0 0 0 0 0 0 0 0 0 -1 -1 -1 -1 -1 -1 -1 -1 -1 -1 -1 -1 -1 -1 -1 -1 

