# vtk DataFile Version 3.0
Generated by GMDS VTK Writer

ASCII
DATASET UNSTRUCTURED_GRID
POINTS 57 float
5 0 0
5 0 -5
10 10 -5
10 -5 -5
-5 -5 10
10 10 10
10 -5 10
-5 5 10
10 5 10
10 5 -5
-5 -5 -8.88178419700125e-16
10 -5 -8.88178419700125e-16
10 5 0
-5 5 0
10 10 -8.88178419700125e-16
-8.88178419700125e-16 -5 -5
0 5 -5
0 5 0
0 -5 0
0 5 10
-8.88178419700125e-16 -5 10
-8.88178419700125e-16 10 -5
0 10 0
-8.88178419700125e-16 10 10
-5 0 0
0 0 0
0 0 -5
10 0 0
10 -4.44089209850063e-16 -5
-5 -4.44089209850063e-16 10
0 0 10
10 -4.44089209850063e-16 10
-5 5 5
0 5 5
0 10 5
10 5 5
10 10 5
-5 -5 5
0 -5 5
-2.22044604925031e-16 0 5
-5 0 5
10 -5 5
10 0 5
5 5 0
5 5 -5
5 -5 -5
5 -5 0
5 5 5
5 10 5
5 10 0
5 5 10
5 10 10
5 10 -5
5 -5 10
5 0 10
5 0 5
5 -5 5

CELLS 89 445
4 5 8 35 36 
4 44 43 12 9 
4 3 11 27 28 
4 43 0 27 12 
4 26 25 17 16 
4 15 18 25 26 
4 33 34 22 17 
4 19 23 34 33 
4 24 25 17 13 
4 2 9 12 14 
4 17 33 47 43 
4 10 18 25 24 
4 17 25 0 43 
4 43 49 14 12 
4 16 17 43 44 
4 32 33 17 13 
4 17 22 49 43 
4 49 48 36 14 
4 7 19 33 32 
4 22 34 48 49 
4 47 48 36 35 
4 0 1 28 27 
4 25 26 1 0 
4 21 16 17 22 
4 33 34 48 47 
4 45 46 0 1 
4 45 1 28 3 
4 15 26 1 45 
4 46 0 27 11 
4 18 25 0 46 
4 45 46 11 3 
4 4 20 30 29 
4 29 30 19 7 
4 15 18 46 45 
4 1 0 43 44 
4 16 26 1 44 
4 36 35 12 14 
4 4 20 38 37 
4 37 38 18 10 
4 20 30 39 38 
4 38 39 25 18 
4 29 30 39 40 
4 40 39 25 24 
4 4 29 40 37 
4 37 40 24 10 
4 37 38 39 40 
4 19 30 39 33 
4 33 39 25 17 
4 7 29 40 32 
4 32 40 24 13 
4 40 39 33 32 
4 6 31 42 41 
4 41 42 27 11 
4 8 31 42 35 
4 35 42 27 12 
4 43 47 35 12 
4 47 48 49 43 
4 19 23 51 50 
4 50 51 5 8 
4 23 34 48 51 
4 51 48 36 5 
4 19 33 47 50 
4 50 47 35 8 
4 50 51 48 47 
4 16 21 52 44 
4 44 52 2 9 
4 21 22 49 52 
4 52 49 14 2 
4 52 44 43 49 
4 20 30 54 53 
4 53 54 31 6 
4 30 39 55 54 
4 54 55 42 31 
4 38 39 55 56 
4 56 55 42 41 
4 20 38 56 53 
4 53 56 41 6 
4 53 54 55 56 
4 25 39 55 0 
4 0 55 42 27 
4 18 38 56 46 
4 46 56 41 11 
4 56 55 0 46 
4 19 30 54 50 
4 50 54 31 8 
4 33 39 55 47 
4 47 55 42 35 
4 50 54 55 47 
4 47 55 0 43 

CELL_TYPES 89
9 
9 
9 
9 
9 
9 
9 
9 
9 
9 
9 
9 
9 
9 
9 
9 
9 
9 
9 
9 
9 
9 
9 
9 
9 
9 
9 
9 
9 
9 
9 
9 
9 
9 
9 
9 
9 
9 
9 
9 
9 
9 
9 
9 
9 
9 
9 
9 
9 
9 
9 
9 
9 
9 
9 
9 
9 
9 
9 
9 
9 
9 
9 
9 
9 
9 
9 
9 
9 
9 
9 
9 
9 
9 
9 
9 
9 
9 
9 
9 
9 
9 
9 
9 
9 
9 
9 
9 
9 
POINT_DATA 57
SCALARS GMDS_ID int 1
LOOKUP_TABLE default
0 1 2 3 4 6 7 9 10 11 12 13 14 15 16 18 19 20 21 22 23 24 25 26 28 29 30 31 32 33 34 35 37 38 39 40 41 42 43 44 45 46 47 48 49 50 51 52 53 54 55 56 57 58 59 60 61 
SCALARS geom_link_dim int 1
LOOKUP_TABLE default
1 1 0 0 0 0 0 0 0 0 0 0 1 1 0 0 1 1 1 1 0 0 1 0 1 1 1 1 0 0 1 0 1 1 1 1 0 0 1 0 1 0 1 1 1 0 1 0 1 1 1 0 0 0 1 0 1 
SCALARS geom_link_id int 1
LOOKUP_TABLE default
26 25 -1 -1 -1 -1 -1 -1 -1 -1 -1 -1 21 5 -1 -1 18 1 28 16 -1 -1 4 -1 11 12 19 29 -1 -1 20 -1 6 2 3 22 -1 -1 27 0 13 -1 30 10 17 -1 31 0 7 9 15 -1 -1 -1 24 0 32 


CELL_DATA 89
SCALARS GMDS_ID int 1
LOOKUP_TABLE default
0 2 3 13 15 16 17 18 19 20 21 22 24 25 26 28 29 30 31 33 34 36 40 42 45 46 47 52 53 54 55 56 57 58 59 63 64 68 69 70 71 72 73 74 75 76 77 78 79 80 81 86 87 89 90 92 93 94 95 96 97 98 99 100 101 102 103 104 105 106 107 108 109 110 111 112 113 114 115 116 117 118 119 120 121 122 123 124 125 

SCALARS geom_link_dim int 1
LOOKUP_TABLE default
0 0 0 0 0 0 0 0 0 0 0 0 0 0 0 0 0 0 0 0 0 0 0 0 0 0 0 0 0 0 0 0 0 0 0 0 0 0 0 0 0 0 0 0 0 0 0 0 0 0 0 0 0 0 0 0 0 0 0 0 0 0 0 0 0 0 0 0 0 0 0 0 0 0 0 0 0 0 0 0 0 0 0 0 0 0 0 0 0 

SCALARS geom_link_id int 1
LOOKUP_TABLE default
0 0 0 0 0 0 0 0 0 0 0 0 0 0 0 0 0 0 0 0 0 0 0 0 0 0 0 0 0 0 0 0 0 0 0 0 0 0 0 0 0 0 0 0 0 0 0 0 0 0 0 0 0 0 0 0 0 0 0 0 0 0 0 0 0 0 0 0 0 0 0 0 0 0 0 0 0 0 0 0 0 0 0 0 0 0 0 0 0 

