# vtk DataFile Version 3.0
Generated by GMDS VTK Writer

ASCII
DATASET UNSTRUCTURED_GRID
POINTS 150 float
0 0 0
0 10 0
10 10 0
10 0 0
0 0 10
0 10 10
10 10 10
10 0 10
0 4 0
0 4 10
10 4 10
10 4 0
1 0 0
1 0 10
1 4 10
1 4 0
1 10 10
1 10 0
4 0 0
4 0 10
4 4 10
4 4 0
4 10 10
4 10 0
1 0 6
1 4 6
0 4 6
0 0 6
4 0 6
4 4 6
10 0 6
10 4 6
1 10 6
0 10 6
10 10 6
4 10 6
0 1 10
1 1 10
1 1 6
0 1 6
1 1 0
0 1 0
4 1 10
4 1 6
4 1 0
10 1 10
10 1 6
10 1 0
0 1 4
1 1 4
1 4 4
0 4 4
0 0 4
1 0 4
1 10 4
0 10 4
10 10 4
10 4 4
4 4 4
4 10 4
4 0 4
4 1 4
10 0 4
10 1 4
6 10 10
6 4 10
6 4 6
6 10 6
6 0 10
6 0 6
6 1 6
6 1 10
6 10 0
6 4 0
6 4 4
6 10 4
6 0 0
6 1 0
6 1 4
6 0 4
0 8 10
1 8 10
1 8 6
0 8 6
0 8 4
1 8 4
0 8 0
1 8 0
4 8 10
4 8 6
6 8 10
6 8 6
10 8 10
10 8 6
4 8 0
4 8 4
10 8 0
10 8 4
6 8 4
6 8 0
0 1 1
1 1 1
1 4 1
0 4 1
0 0 1
1 0 1
4 0 1
4 1 1
4 4 1
0 8 1
1 8 1
1 10 1
0 10 1
10 0 1
10 1 1
6 1 1
6 0 1
10 4 1
6 4 1
4 8 1
4 10 1
6 8 1
10 8 1
6 10 1
10 10 1
1 0 8
4 0 8
4 1 8
1 1 8
6 4 8
6 1 8
4 4 8
10 4 8
10 1 8
1 4 8
4 8 8
1 8 8
0 1 8
0 4 8
0 0 8
6 0 8
10 0 8
0 8 8
1 10 8
0 10 8
4 10 8
6 8 8
6 10 8
10 8 8
10 10 8

CELLS 296 1480
4 17 87 110 111 
4 52 53 49 48 
4 13 19 42 37 
4 109 110 85 84 
4 52 48 39 27 
4 65 71 42 20 
4 41 40 15 8 
4 138 134 25 26 
4 0 12 40 41 
4 10 45 71 65 
4 53 49 38 24 
4 66 70 43 29 
4 9 14 134 138 
4 31 46 70 66 
4 52 53 24 27 
4 86 87 110 109 
4 134 128 38 25 
4 38 39 26 25 
4 48 49 50 51 
4 101 107 108 102 
4 24 27 39 38 
4 51 48 39 26 
4 14 20 88 81 
4 102 108 58 50 
4 36 37 14 9 
4 14 37 128 134 
4 15 21 108 102 
4 4 13 37 36 
4 137 128 38 39 
4 51 50 25 26 
4 36 37 128 137 
4 68 71 42 19 
4 7 45 71 68 
4 50 49 38 25 
4 134 131 135 136 
4 49 48 39 38 
4 134 136 82 25 
4 14 81 136 134 
4 136 135 89 82 
4 108 107 61 58 
4 69 70 43 28 
4 21 44 107 108 
4 30 46 70 69 
4 105 106 107 101 
4 101 107 61 49 
4 40 44 107 101 
4 106 107 61 60 
4 81 88 135 136 
4 131 135 89 29 
4 18 44 107 106 
4 37 42 20 14 
4 24 28 43 38 
4 38 43 29 25 
4 105 106 60 53 
4 12 18 106 105 
4 12 18 44 40 
4 40 44 21 15 
4 86 87 17 1 
4 8 15 87 86 
4 84 85 82 83 
4 83 84 55 33 
4 26 51 84 83 
4 82 85 54 32 
4 25 50 85 82 
4 104 105 101 100 
4 104 100 48 52 
4 0 41 100 104 
4 105 101 49 53 
4 12 40 101 105 
4 20 88 135 131 
4 55 54 32 33 
4 104 105 53 52 
4 0 12 105 104 
4 100 101 102 103 
4 85 84 55 54 
4 50 51 84 85 
4 103 100 48 51 
4 8 41 100 103 
4 134 131 29 25 
4 50 58 29 25 
4 14 20 131 134 
4 54 59 35 32 
4 103 102 50 51 
4 132 133 130 129 
4 53 60 28 24 
4 132 129 66 31 
4 60 61 43 28 
4 10 65 129 132 
4 49 61 43 38 
4 53 60 61 49 
4 133 130 70 46 
4 58 61 43 29 
4 49 61 58 50 
4 82 83 33 32 
4 25 26 83 82 
4 45 71 130 133 
4 62 63 46 30 
4 80 81 16 5 
4 132 133 46 31 
4 57 63 46 31 
4 9 14 81 80 
4 8 15 102 103 
4 10 45 133 132 
4 129 130 127 131 
4 102 101 49 50 
4 15 40 101 102 
4 131 129 66 29 
4 20 65 129 131 
4 101 100 48 49 
4 31 57 74 66 
4 66 74 58 29 
4 34 56 75 67 
4 67 75 59 35 
4 40 41 100 101 
4 3 47 77 76 
4 76 77 44 18 
4 131 127 43 29 
4 20 42 127 131 
4 62 63 78 79 
4 79 78 61 60 
4 127 130 70 43 
4 42 71 130 127 
4 129 130 70 66 
4 46 63 78 70 
4 70 78 61 43 
4 30 62 79 69 
4 69 79 60 28 
4 79 78 70 69 
4 11 47 77 73 
4 73 77 44 21 
4 57 63 78 74 
4 74 78 61 58 
4 65 71 130 129 
4 74 78 70 66 
4 81 88 22 16 
4 25 29 89 82 
4 82 89 35 32 
4 29 66 91 89 
4 89 91 67 35 
4 20 65 90 88 
4 88 90 64 22 
4 31 66 91 93 
4 93 91 67 34 
4 10 65 90 92 
4 92 90 64 6 
4 15 21 94 87 
4 87 94 23 17 
4 125 126 127 128 
4 125 128 38 24 
4 50 58 95 85 
4 85 95 59 54 
4 13 37 128 125 
4 29 58 95 89 
4 89 95 59 35 
4 85 95 89 82 
4 128 127 43 38 
4 37 42 127 128 
4 57 74 98 97 
4 97 98 75 56 
4 126 127 43 28 
4 19 42 127 126 
4 11 73 99 96 
4 96 99 72 2 
4 125 126 28 24 
4 58 74 98 95 
4 95 98 75 59 
4 21 73 99 94 
4 94 99 72 23 
4 13 19 126 125 
4 31 57 97 93 
4 93 97 56 34 
4 66 74 98 91 
4 91 98 75 67 
4 93 97 98 91 
4 91 98 95 89 
4 111 110 85 54 
4 1 17 111 112 
4 112 111 54 55 
4 1 86 109 112 
4 112 109 84 55 
4 109 110 111 112 
4 15 87 110 102 
4 102 110 85 50 
4 8 86 109 103 
4 103 109 84 51 
4 103 102 110 109 
4 3 47 114 113 
4 113 114 63 62 
4 47 77 115 114 
4 114 115 78 63 
4 76 77 115 116 
4 116 115 78 79 
4 3 76 116 113 
4 113 116 79 62 
4 113 114 115 116 
4 44 77 115 107 
4 107 115 78 61 
4 18 76 116 106 
4 106 116 79 60 
4 116 115 107 106 
4 11 47 114 117 
4 117 114 63 57 
4 73 77 115 118 
4 118 115 78 74 
4 11 73 118 117 
4 117 118 74 57 
4 117 114 115 118 
4 21 73 118 108 
4 108 118 74 58 
4 118 115 107 108 
4 21 94 119 108 
4 108 119 95 58 
4 87 94 119 110 
4 110 119 95 85 
4 102 108 119 110 
4 23 94 119 120 
4 120 119 95 59 
4 17 23 120 111 
4 111 120 59 54 
4 110 119 120 111 
4 73 99 121 118 
4 118 121 98 74 
4 96 99 121 122 
4 122 121 98 97 
4 11 96 122 117 
4 117 122 97 57 
4 117 118 121 122 
4 72 99 121 123 
4 123 121 98 75 
4 2 72 123 124 
4 124 123 75 56 
4 2 96 122 124 
4 124 122 97 56 
4 122 121 123 124 
4 94 99 121 119 
4 119 121 98 95 
4 108 118 121 119 
4 23 72 123 120 
4 120 123 75 59 
4 119 121 123 120 
4 9 36 137 138 
4 138 137 39 26 
4 137 128 134 138 
4 4 13 125 139 
4 139 125 24 27 
4 4 36 137 139 
4 139 137 39 27 
4 139 125 128 137 
4 68 71 130 140 
4 140 130 70 69 
4 19 68 140 126 
4 126 140 69 28 
4 140 130 127 126 
4 7 45 133 141 
4 141 133 46 30 
4 7 68 140 141 
4 141 140 69 30 
4 141 133 130 140 
4 128 127 131 134 
4 80 81 136 142 
4 142 136 82 83 
4 16 81 136 143 
4 143 136 82 32 
4 5 16 143 144 
4 144 143 32 33 
4 5 80 142 144 
4 144 142 83 33 
4 142 136 143 144 
4 9 80 142 138 
4 138 142 83 26 
4 138 134 136 142 
4 22 88 135 145 
4 145 135 89 35 
4 16 22 145 143 
4 143 145 35 32 
4 136 135 145 143 
4 65 90 146 129 
4 129 146 91 66 
4 88 90 146 135 
4 135 146 91 89 
4 131 129 146 135 
4 64 90 146 147 
4 147 146 91 67 
4 22 64 147 145 
4 145 147 67 35 
4 135 146 147 145 
4 90 92 148 146 
4 146 148 93 91 
4 10 92 148 132 
4 132 148 93 31 
4 132 129 146 148 
4 6 64 147 149 
4 149 147 67 34 
4 6 92 148 149 
4 149 148 93 34 
4 148 146 147 149 

CELL_TYPES 296
9 
9 
9 
9 
9 
9 
9 
9 
9 
9 
9 
9 
9 
9 
9 
9 
9 
9 
9 
9 
9 
9 
9 
9 
9 
9 
9 
9 
9 
9 
9 
9 
9 
9 
9 
9 
9 
9 
9 
9 
9 
9 
9 
9 
9 
9 
9 
9 
9 
9 
9 
9 
9 
9 
9 
9 
9 
9 
9 
9 
9 
9 
9 
9 
9 
9 
9 
9 
9 
9 
9 
9 
9 
9 
9 
9 
9 
9 
9 
9 
9 
9 
9 
9 
9 
9 
9 
9 
9 
9 
9 
9 
9 
9 
9 
9 
9 
9 
9 
9 
9 
9 
9 
9 
9 
9 
9 
9 
9 
9 
9 
9 
9 
9 
9 
9 
9 
9 
9 
9 
9 
9 
9 
9 
9 
9 
9 
9 
9 
9 
9 
9 
9 
9 
9 
9 
9 
9 
9 
9 
9 
9 
9 
9 
9 
9 
9 
9 
9 
9 
9 
9 
9 
9 
9 
9 
9 
9 
9 
9 
9 
9 
9 
9 
9 
9 
9 
9 
9 
9 
9 
9 
9 
9 
9 
9 
9 
9 
9 
9 
9 
9 
9 
9 
9 
9 
9 
9 
9 
9 
9 
9 
9 
9 
9 
9 
9 
9 
9 
9 
9 
9 
9 
9 
9 
9 
9 
9 
9 
9 
9 
9 
9 
9 
9 
9 
9 
9 
9 
9 
9 
9 
9 
9 
9 
9 
9 
9 
9 
9 
9 
9 
9 
9 
9 
9 
9 
9 
9 
9 
9 
9 
9 
9 
9 
9 
9 
9 
9 
9 
9 
9 
9 
9 
9 
9 
9 
9 
9 
9 
9 
9 
9 
9 
9 
9 
9 
9 
9 
9 
9 
9 
9 
9 
9 
9 
9 
9 
9 
9 
9 
9 
9 
9 
9 
9 
9 
9 
9 
9 
9 
9 
9 
9 
9 
9 
POINT_DATA 150
SCALARS GMDS_ID int 1
LOOKUP_TABLE default
0 1 2 3 4 5 6 7 8 9 10 11 12 13 14 15 16 17 18 19 20 21 22 23 24 25 26 27 28 29 30 31 32 33 34 35 36 37 38 39 40 41 42 43 44 45 46 47 48 49 50 51 52 53 54 55 56 57 58 59 60 61 62 63 64 65 66 67 68 69 70 71 72 73 74 75 76 77 78 79 80 81 82 83 84 85 86 87 88 89 90 91 92 93 94 95 96 97 98 99 100 101 102 103 104 105 106 107 108 109 110 111 112 113 114 115 116 117 118 119 120 121 122 123 124 125 126 127 128 129 130 131 132 133 134 135 136 137 138 139 140 141 142 143 144 145 146 147 148 149 
SCALARS geom_link_dim int 1
LOOKUP_TABLE default
1 1 1 1 1 1 1 1 2 2 2 2 2 2 3 3 2 2 2 2 3 3 2 2 3 0 3 2 3 0 2 3 3 2 2 3 2 3 0 3 3 2 3 0 3 2 3 2 3 0 0 3 2 3 3 2 2 3 0 3 3 0 2 3 2 3 0 3 2 3 0 3 2 3 0 3 2 3 0 3 2 3 0 3 3 0 2 3 3 0 3 0 2 3 3 0 2 3 0 3 3 0 0 3 2 3 3 0 0 3 0 3 2 2 3 0 3 3 0 0 3 0 3 3 2 3 3 0 0 0 0 0 3 3 0 0 0 3 3 2 3 2 3 3 2 3 0 3 3 2 
SCALARS geom_link_id int 1
LOOKUP_TABLE default
10 12 16 13 9 11 15 14 19 29 26 31 20 28 18 11 25 30 20 28 18 11 25 30 12 0 10 21 12 0 33 13 17 32 27 17 29 18 0 10 11 19 18 0 11 26 13 31 10 0 0 10 21 12 17 32 27 13 0 17 12 0 33 13 25 18 0 17 28 12 0 18 30 11 0 17 20 11 0 12 29 18 0 10 10 0 19 11 18 0 18 0 26 13 11 0 31 13 0 11 10 0 0 10 21 12 12 0 0 10 0 17 32 33 13 0 12 13 0 0 17 0 13 17 27 12 12 -1 -1 -1 -1 -1 13 13 -1 -1 -1 10 10 21 12 33 10 17 32 17 -1 17 13 27 


CELL_DATA 296
SCALARS GMDS_ID int 1
LOOKUP_TABLE default
0 2 3 4 5 7 8 9 10 11 12 13 15 17 18 21 22 23 24 25 26 27 29 30 32 33 34 35 37 38 39 41 43 44 45 46 47 49 51 52 53 54 55 58 59 61 62 63 65 68 69 72 73 75 76 77 78 80 81 82 83 86 87 88 90 91 92 93 94 95 96 97 98 99 100 101 102 103 107 108 109 110 111 112 113 114 115 116 117 118 119 120 121 122 123 126 127 128 129 130 131 132 133 134 135 136 137 138 139 140 141 142 143 144 145 146 147 148 149 150 151 152 153 154 155 156 157 158 159 160 161 162 163 164 165 168 169 173 174 175 176 180 181 182 183 185 186 187 188 189 190 191 192 193 194 195 196 197 198 199 200 201 202 203 204 205 206 207 208 209 210 211 212 213 214 215 216 217 218 219 220 221 222 223 224 225 226 227 228 229 230 231 232 233 234 235 236 237 238 239 240 241 242 243 244 245 246 247 248 249 250 251 252 253 254 255 256 257 258 259 260 261 262 263 264 265 266 267 268 269 270 271 272 273 274 275 276 277 278 279 280 281 282 283 284 285 286 287 288 289 290 291 292 293 294 295 296 297 298 299 300 301 302 303 304 305 306 307 308 309 310 311 312 313 314 315 316 317 318 319 320 321 322 323 324 325 326 327 328 329 330 331 332 333 334 335 

SCALARS geom_link_dim int 1
LOOKUP_TABLE default
0 0 0 0 0 0 0 0 0 0 0 0 0 0 0 0 0 0 0 0 0 0 0 0 0 0 0 0 0 0 0 0 0 0 0 0 0 0 0 0 0 0 0 0 0 0 0 0 0 0 0 0 0 0 0 0 0 0 0 0 0 0 0 0 0 0 0 0 0 0 0 0 0 0 0 0 0 0 0 0 0 0 0 0 0 0 0 0 0 0 0 0 0 0 0 0 0 0 0 0 0 0 0 0 0 0 0 0 0 0 0 0 0 0 0 0 0 0 0 0 0 0 0 0 0 0 0 0 0 0 0 0 0 0 0 0 0 0 0 0 0 0 0 0 0 0 0 0 0 0 0 0 0 0 0 0 0 0 0 0 0 0 0 0 0 0 0 0 0 0 0 0 0 0 0 0 0 0 0 0 0 0 0 0 0 0 0 0 0 0 0 0 0 0 0 0 0 0 0 0 0 0 0 0 0 0 0 0 0 0 0 0 0 0 0 0 0 0 0 0 0 0 0 0 0 0 0 0 0 0 0 0 0 0 0 0 0 0 0 0 0 0 0 0 0 0 0 0 0 0 0 0 0 0 0 0 0 0 0 0 0 0 0 0 0 0 0 0 0 0 0 0 0 0 0 0 0 0 0 0 0 0 0 0 0 0 0 0 0 0 0 0 0 0 0 0 

SCALARS geom_link_id int 1
LOOKUP_TABLE default
0 0 0 0 0 0 0 -1 0 0 0 0 -1 0 0 0 -1 0 0 0 0 0 0 0 0 -1 0 0 -1 0 -1 0 0 0 -1 0 -1 -1 -1 0 0 0 0 0 0 0 0 -1 -1 0 0 0 0 0 0 0 0 0 0 0 0 0 0 0 0 0 0 0 0 -1 0 0 0 0 0 0 0 0 -1 0 -1 0 0 -1 0 -1 0 -1 0 0 -1 0 0 0 0 -1 0 0 -1 0 0 0 -1 -1 0 0 -1 -1 0 0 0 0 0 0 0 0 -1 -1 0 0 -1 -1 -1 0 0 0 0 0 0 0 0 0 -1 0 0 0 0 0 0 0 0 0 0 0 0 0 0 -1 -1 0 0 -1 0 0 0 -1 -1 0 0 -1 -1 0 0 -1 0 0 0 0 -1 0 0 0 0 0 0 0 0 0 0 0 0 0 0 0 0 0 0 0 0 0 0 0 0 0 0 0 0 0 0 0 0 0 0 0 0 0 0 0 0 0 0 0 0 0 0 0 0 0 0 0 0 0 0 0 0 0 0 0 0 0 0 0 0 0 0 0 0 0 0 0 -1 -1 -1 -1 -1 -1 -1 -1 -1 -1 -1 -1 -1 -1 -1 -1 -1 -1 -1 -1 -1 -1 -1 -1 -1 -1 -1 -1 -1 -1 -1 -1 -1 -1 -1 -1 -1 -1 -1 -1 -1 -1 -1 -1 -1 -1 -1 -1 -1 -1 -1 -1 -1 -1 -1 -1 

