# vtk DataFile Version 3.0
Generated by GMDS VTK Writer

ASCII
DATASET UNSTRUCTURED_GRID
POINTS 125 float
-5 -5 -5
-5 5 -5
5 5 -5
5 -5 -5
-5 -5 5
-5 5 5
5 5 5
5 -5 5
1 -5 -5
1 5 -5
1 5 5
1 -5 5
-5 4 -5
-5 4 5
1 4 5
1 4 -5
5 4 5
5 4 -5
-5 5 -1
1 5 -1
1 4 -1
-5 4 -1
1 -5 -1
-5 -5 -1
5 5 -1
5 4 -1
5 -5 -1
-5 -1 -5
1 -1 -5
1 -1 -1
-5 -1 -1
1 -1 5
-5 -1 5
5 -1 -5
5 -1 -1
5 -1 5
-0.999999999999999 -1 5
-1 -1 -1
-1 4 -1
-1 4 5
-0.999999999999999 5 -1
-0.999999999999999 5 5
-0.999999999999999 -5 5
-1 -5 -1
-0.999999999999999 5 -5
-1 4 -5
-1 -1 -5
-1 -5 -5
4 5 -5
4 4 -5
4 4 -1
4 5 -1
4 4 5
4 5 5
4 -5 -5
4 -5 -1
4 -1 -1
4 -1 -5
4 -5 5
4 -1 5
-0.999999999999999 5 1
-1 4 1
-5 4 1
-5 5 1
1 5 1
1 4 1
4 5 0.999999999999999
4 4 1
5 5 0.999999999999999
5 4 1
-1 -1 1
-5 -1 1
1 -1 1
1 -5 1
-0.999999999999999 -5 0.999999999999999
-5 -5 0.999999999999999
5 -5 0.999999999999999
5 -1 1
4 -1 1
4 -5 0.999999999999999
1 5 4
1 4 4
-1 4 4
-0.999999999999999 5 4
-5 4 4
-5 5 4
4 5 4
4 4 4
5 5 4
5 4 4
-0.999999999999999 -1 4
-5 -1 4
1 -1 4
1 -5 4
-0.999999999999999 -5 4
-5 -5 4
5 -5 4
5 -1 4
4 -1 4
4 -5 4
4 1 4
5 1 4
5 0.999999999999999 5
4 1 5
4 1 1
5 1 1
4 1 -5
4 1 -1
1 1 -1
1 1 -5
5 0.999999999999999 -5
5 1 -1
1 1 4
1 1 5
-1 1 -1
-1 1 1
1 1 1
-5 1 -1
-5 1 1
-0.999999999999999 1 4
-5 1 4
-5 0.999999999999999 5
-0.999999999999999 1 5
-1 1 -5
-5 1 -5

CELLS 64 576
8 54 55 56 57 8 22 29 28 
8 3 26 34 33 54 55 56 57 
8 48 49 50 51 9 15 20 19 
8 2 17 25 24 48 49 50 51 
8 112 100 103 113 92 98 59 31 
8 51 50 20 19 66 67 65 64 
8 88 89 87 86 6 16 52 53 
8 68 69 67 66 88 89 87 86 
8 108 114 115 116 29 37 70 72 
8 19 20 38 40 64 65 61 60 
8 20 38 61 65 108 114 115 116 
8 40 38 21 18 60 61 62 63 
8 86 87 81 80 53 52 14 10 
8 66 67 65 64 86 87 81 80 
8 9 15 20 19 44 45 38 40 
8 44 45 38 40 1 12 21 18 
8 8 22 29 28 47 43 37 46 
8 47 43 37 46 0 23 30 27 
8 83 82 84 85 41 39 13 5 
8 60 61 62 63 83 82 84 85 
8 80 81 82 83 10 14 39 41 
8 64 65 61 60 80 81 82 83 
8 24 25 50 51 68 69 67 66 
8 81 87 52 14 112 100 103 113 
8 110 111 107 106 33 34 56 57 
8 17 25 50 49 110 111 107 106 
8 22 29 37 43 73 72 70 74 
8 106 107 108 109 57 56 29 28 
8 43 37 30 23 74 70 71 75 
8 49 50 20 15 106 107 108 109 
8 26 34 56 55 76 77 78 79 
8 104 105 101 100 78 77 97 98 
8 55 56 29 22 79 78 72 73 
8 67 69 89 87 104 105 101 100 
8 100 101 102 103 98 97 35 59 
8 87 89 16 52 100 101 102 103 
8 73 72 70 74 93 92 90 94 
8 93 92 90 94 11 31 36 42 
8 74 70 71 75 94 90 91 95 
8 94 90 91 95 42 36 32 4 
8 76 77 78 79 96 97 98 99 
8 96 97 98 99 7 35 59 58 
8 79 78 72 73 99 98 92 93 
8 99 98 92 93 58 59 31 11 
8 65 67 87 81 116 104 100 112 
8 116 104 100 112 72 78 98 92 
8 21 38 61 62 117 114 115 118 
8 117 114 115 118 30 37 70 71 
8 82 84 13 39 119 120 121 122 
8 119 120 121 122 90 91 32 36 
8 61 62 84 82 115 118 120 119 
8 115 118 120 119 70 71 91 90 
8 15 20 38 45 109 108 114 123 
8 109 108 114 123 28 29 37 46 
8 45 38 21 12 123 114 117 124 
8 123 114 117 124 46 37 30 27 
8 82 81 14 39 119 112 113 122 
8 119 112 113 122 90 92 31 36 
8 61 65 81 82 115 116 112 119 
8 115 116 112 119 70 72 92 90 
8 20 50 67 65 108 107 104 116 
8 108 107 104 116 29 56 78 72 
8 25 50 67 69 111 107 104 105 
8 111 107 104 105 34 56 78 77 

CELL_TYPES 64
12 
12 
12 
12 
12 
12 
12 
12 
12 
12 
12 
12 
12 
12 
12 
12 
12 
12 
12 
12 
12 
12 
12 
12 
12 
12 
12 
12 
12 
12 
12 
12 
12 
12 
12 
12 
12 
12 
12 
12 
12 
12 
12 
12 
12 
12 
12 
12 
12 
12 
12 
12 
12 
12 
12 
12 
12 
12 
12 
12 
12 
12 
12 
12 
POINT_DATA 125
SCALARS GMDS_ID int 1
LOOKUP_TABLE default
0 1 2 3 4 5 6 7 8 9 10 11 12 13 14 15 16 17 18 19 20 21 22 23 24 25 26 27 28 29 30 31 32 33 34 35 36 37 38 39 40 41 42 43 44 45 46 47 48 49 50 51 52 53 54 55 56 57 58 59 60 61 62 63 64 65 66 67 68 69 70 71 72 73 74 75 76 77 78 79 80 81 82 83 84 85 86 87 88 89 90 91 92 93 94 95 96 97 98 99 100 101 102 103 104 105 106 107 108 109 110 111 112 113 114 115 116 117 118 119 120 121 122 123 124 
SCALARS geom_link_dim_0 int 1
LOOKUP_TABLE default
0 0 0 0 0 0 0 0 0 0 0 0 0 0 0 0 0 0 0 0 0 0 0 0 0 0 0 0 0 0 0 0 0 0 0 0 0 0 0 0 0 0 0 0 0 0 0 0 0 0 0 0 0 0 0 0 0 0 0 0 0 0 0 0 0 0 0 0 0 0 0 0 0 0 0 0 0 0 0 0 0 0 0 0 0 0 0 0 0 0 0 0 0 0 0 0 0 0 0 0 0 0 0 0 0 0 0 0 0 0 0 0 0 0 0 0 0 0 0 0 0 0 0 0 0 
SCALARS geom_link_id_0 int 1
LOOKUP_TABLE default
0 0 0 0 0 0 0 0 0 0 0 0 0 0 0 0 0 0 0 0 0 0 0 0 0 0 0 0 0 0 0 0 0 0 0 0 0 0 0 0 0 0 0 0 0 0 0 0 0 0 0 0 0 0 0 0 0 0 0 0 0 0 0 0 0 0 0 0 0 0 0 0 0 0 0 0 0 0 0 0 0 0 0 0 0 0 0 0 0 0 0 0 0 0 0 0 0 0 0 0 0 0 0 0 0 0 0 0 0 0 0 0 0 0 0 0 0 0 0 0 0 0 0 0 0 


CELL_DATA 64
SCALARS GMDS_ID int 1
LOOKUP_TABLE default
0 1 4 5 8 9 10 11 12 13 14 15 16 17 18 19 22 23 26 27 28 29 30 31 33 35 36 37 38 39 40 41 42 43 45 47 48 49 50 51 52 53 54 55 60 61 62 63 64 65 66 67 68 69 70 71 72 73 74 75 76 77 78 79 

SCALARS geom_link_dim_0 int 1
LOOKUP_TABLE default
0 0 0 0 0 0 0 0 0 0 0 0 0 0 0 0 0 0 0 0 0 0 0 0 0 0 0 0 0 0 0 0 0 0 0 0 0 0 0 0 0 0 0 0 0 0 0 0 0 0 0 0 0 0 0 0 0 0 0 0 0 0 0 0 

SCALARS geom_link_id_0 int 1
LOOKUP_TABLE default
0 0 0 0 0 0 0 0 0 0 0 0 0 0 0 0 0 0 0 0 0 0 0 0 0 0 0 0 0 0 0 0 0 0 0 0 0 0 0 0 0 0 0 0 0 0 0 0 0 0 0 0 0 0 0 0 0 0 0 0 0 0 0 0 

