# vtk DataFile Version 3.0
Generated by GMDS VTK Writer

ASCII
DATASET UNSTRUCTURED_GRID
POINTS 36 float
-5 -5 -5
-5 5 -5
5 5 -5
5 -5 -5
-5 -5 5
-5 5 5
5 5 5
5 -5 5
4 -5 -5
4 5 -5
4 5 5
4 -5 5
-5 1 -5
-5 1 5
4 1 5
4 1 -5
5 1 5
5 1 -5
-5 -5 -1
4 -5 -1
4 1 -1
-5 1 -1
4 5 -1
-5 5 -1
5 -5 -1
5 1 -1
5 5 -1
-5 3 -1
4 3 -1
4 3 5
-5 3 5
-5 3 -5
4 3 -5
5 3 -5
5 3 -1
5 3 5

CELLS 12 108
8 31 32 28 27 1 9 22 23 
8 18 19 20 21 4 11 14 13 
8 0 8 15 12 18 19 20 21 
8 12 15 20 21 31 32 28 27 
8 27 28 29 30 23 22 10 5 
8 21 20 14 13 27 28 29 30 
8 3 8 15 17 24 19 20 25 
8 24 19 20 25 7 11 14 16 
8 15 17 25 20 32 33 34 28 
8 32 33 34 28 9 2 26 22 
8 20 25 16 14 28 34 35 29 
8 28 34 35 29 22 26 6 10 

CELL_TYPES 12
12 
12 
12 
12 
12 
12 
12 
12 
12 
12 
12 
12 
POINT_DATA 36
SCALARS GMDS_ID int 1
LOOKUP_TABLE default
0 1 2 3 4 5 6 7 8 9 10 11 12 13 14 15 16 17 18 19 20 21 22 23 24 25 26 27 28 29 30 31 32 33 34 35 
SCALARS geom_link_dim_0 int 1
LOOKUP_TABLE default
0 0 0 0 0 0 0 0 0 0 0 0 0 0 0 0 0 0 0 0 0 0 0 0 0 0 0 0 0 0 0 0 0 0 0 0 
SCALARS geom_link_id_0 int 1
LOOKUP_TABLE default
0 0 0 0 0 0 0 0 0 0 0 0 0 0 0 0 0 0 0 0 0 0 0 0 0 0 0 0 0 0 0 0 0 0 0 0 


CELL_DATA 12
SCALARS GMDS_ID int 1
LOOKUP_TABLE default
0 1 2 3 4 5 8 9 12 13 14 15 

SCALARS geom_link_dim_0 int 1
LOOKUP_TABLE default
0 0 0 0 0 0 0 0 0 0 0 0 

SCALARS geom_link_id_0 int 1
LOOKUP_TABLE default
0 0 0 0 0 0 0 0 0 0 0 0 

