# vtk DataFile Version 3.0
Generated by GMDS VTK Writer

ASCII
DATASET UNSTRUCTURED_GRID
POINTS 180 float
-5 -5 -5
-5 5 -5
5 5 -5
5 -5 -5
-5 -5 5
-5 5 5
5 5 5
5 -5 5
-5 -1 -5
-5 -1 5
5 -1 5
5 -1 -5
-5 -5 -1
5 -5 -1
5 -1 -1
-5 -1 -1
5 5 -1
-5 5 -1
-1 -5 -5
-1 -1 -5
-1 -1 -1
-1 -5 -1
-1 -1 5
-1 -5 5
-1 5 -5
-1 5 -1
-1 5 5
-5 -5 1
-5 -1 1
-1 -1 1
-1 -5 1
5 -1 1
5 -5 1
-5 5 1
-1 5 1
5 5 1
5 0.999999999999999 1
-1 0.999999999999999 1
-1 1 -1
5 0.999999999999999 -1
-1 0.999999999999999 -5
5 0.999999999999999 -5
5 0.999999999999999 5
-1 0.999999999999999 5
-5 1 -5
-5 1 -1
-5 0.999999999999999 1
-5 0.999999999999999 5
1 -1 1
1 -5 1
1 -5 -1
1 -1 -1
1 -1 5
1 -5 5
1 0.999999999999999 -5
1 1 -1
1 5 -1
1 5 -5
1 -1 -5
0.999999999999999 -5 -5
1 1 1
1 5 1
1 0.999999999999999 5
1 5 5
-5 3 -5
-5 3 -1
-1 3 -1
-1 3 -5
-5 3 5
-1 3 5
-1 3 1
-5 3 1
1 3 -1
1 3 -5
5 3 -1
5 3 -5
1 3 1
5 3 1
1 3 5
5 3 5
3 -1 -5
3 -1 -1
3 1 -1
3 0.999999999999999 -5
3 -5 -5
3 -5 -1
3 -5 5
3 -1 5
3 -1 1
3 -5 1
3 0.999999999999999 1
3 0.999999999999999 5
3 5 -5
3 5 -1
3 3 -1
3 3 -5
3 5 1
3 3 1
3 5 5
3 3 5
-5 -5 3
-5 -1 3
-1 -1 3
-1 -5 3
-5 3 3
-1 3 3
-1 0.999999999999999 3
-5 0.999999999999999 3
3 -1 3
3 -5 3
1 -5 3
1 -1 3
-5 5 3
-1 5 3
5 -1 3
5 -5 3
1 0.999999999999999 3
1 5 3
1 3 3
5 0.999999999999999 3
3 0.999999999999999 3
5 5 3
5 3 3
3 3 3
3 5 3
3 -1 4
3 -5 4
1 -5 4
1 -1 4
-5 3 4
-1 3 4
-1 0.999999999999999 4
-5 0.999999999999999 4
-5 -5 4
-5 -1 4
-1 -1 4
-1 -5 4
-5 5 4
-1 5 4
5 -1 4
5 -5 4
1 0.999999999999999 4
1 5 4
1 3 4
5 0.999999999999999 4
3 0.999999999999999 4
5 5 4
5 3 4
3 3 4
3 5 4
-5 4 4
-1 4 4
-1 4 5
-5 4 5
-5 4 3
-1 4 3
-5 4 -5
-5 4 -1
-1 4 -1
-1 4 -5
-5 4 1
-1 4 1
1 4 -1
1 4 -5
1 4 1
5 4 -5
5 4 -1
3 4 -1
3 4 -5
5 4 1
3 4 1
1 4 3
3 4 3
5 4 3
1 4 4
1 4 5
3 4 4
5 4 4
3 4 5
5 4 5

CELLS 100 900
8 165 166 167 168 75 74 94 95 
8 0 8 15 12 18 19 20 21 
8 67 66 72 73 40 38 55 54 
8 27 28 29 30 12 15 20 21 
8 135 131 141 128 22 43 62 52 
8 71 70 66 65 46 37 38 45 
8 139 140 126 125 10 7 86 87 
8 134 135 131 132 9 22 43 47 
8 102 106 116 111 135 131 141 128 
8 101 102 106 107 134 135 131 132 
8 29 30 21 20 48 49 50 51 
8 25 34 61 56 158 161 164 162 
8 159 158 162 163 67 66 72 73 
8 114 115 109 108 139 140 126 125 
8 64 65 66 67 44 45 38 40 
8 8 15 20 19 44 45 38 40 
8 32 31 14 13 89 88 81 85 
8 28 29 20 15 46 37 38 45 
8 14 31 36 39 81 88 90 82 
8 135 136 127 128 22 23 53 52 
8 81 88 90 82 51 48 60 55 
8 19 20 38 40 58 51 55 54 
8 24 25 56 57 159 158 162 163 
8 18 19 20 21 59 58 51 50 
8 31 32 89 88 114 115 109 108 
8 84 80 81 85 59 58 51 50 
8 3 11 14 13 84 80 81 85 
8 20 29 37 38 51 48 60 55 
8 29 30 49 48 102 103 110 111 
8 102 103 110 111 135 136 127 128 
8 80 81 82 83 58 51 55 54 
8 11 14 39 41 80 81 82 83 
8 88 89 49 48 108 109 110 111 
8 66 70 76 72 38 37 60 55 
8 2 16 93 92 165 166 167 168 
8 71 70 37 46 104 105 106 107 
8 158 161 164 162 66 70 76 72 
8 27 28 29 30 100 101 102 103 
8 89 88 81 85 49 48 51 50 
8 133 134 135 136 4 9 22 23 
8 100 101 102 103 133 134 135 136 
8 75 74 39 41 95 94 82 83 
8 95 94 82 83 73 72 55 54 
8 74 77 36 39 94 97 90 82 
8 94 97 90 82 72 76 60 55 
8 129 130 131 132 68 69 43 47 
8 104 105 106 107 129 130 131 132 
8 125 126 127 128 87 86 53 52 
8 108 109 110 111 125 126 127 128 
8 28 29 37 46 101 102 106 107 
8 160 161 158 157 71 70 66 65 
8 29 37 60 48 102 106 116 111 
8 33 34 25 17 160 161 158 157 
8 160 161 155 154 71 70 105 104 
8 70 76 60 37 105 118 116 106 
8 33 34 113 112 160 161 155 154 
8 31 36 90 88 114 119 120 108 
8 156 157 158 159 64 65 66 67 
8 88 90 60 48 108 120 116 111 
8 1 17 25 24 156 157 158 159 
8 154 155 151 150 104 105 130 129 
8 112 113 138 137 154 155 151 150 
8 36 77 97 90 119 122 123 120 
8 150 151 152 153 129 130 69 68 
8 90 97 76 60 120 123 118 116 
8 137 138 26 5 150 151 152 153 
8 105 118 116 106 130 143 141 131 
8 130 143 141 131 69 78 62 43 
8 114 119 120 108 139 144 145 125 
8 139 144 145 125 10 42 91 87 
8 108 120 116 111 125 145 141 128 
8 125 145 141 128 87 91 62 52 
8 119 122 123 120 144 147 148 145 
8 144 147 148 145 42 79 99 91 
8 120 123 118 116 145 148 143 141 
8 145 148 143 141 91 99 78 62 
8 92 93 56 57 168 167 162 163 
8 168 167 162 163 95 94 72 73 
8 16 35 96 93 166 169 170 167 
8 166 169 170 167 74 77 97 94 
8 93 96 61 56 167 170 164 162 
8 167 170 164 162 94 97 76 72 
8 34 61 117 113 161 164 171 155 
8 161 164 171 155 70 76 118 105 
8 35 96 124 121 169 170 172 173 
8 169 170 172 173 77 97 123 122 
8 61 96 124 117 164 170 172 171 
8 164 170 172 171 76 97 123 118 
8 113 117 142 138 155 171 174 151 
8 155 171 174 151 105 118 143 130 
8 138 142 63 26 151 174 175 152 
8 151 174 175 152 130 143 78 69 
8 121 124 149 146 173 172 176 177 
8 173 172 176 177 122 123 148 147 
8 146 149 98 6 177 176 178 179 
8 177 176 178 179 147 148 99 79 
8 117 124 149 142 171 172 176 174 
8 171 172 176 174 118 123 148 143 
8 142 149 98 63 174 176 178 175 
8 174 176 178 175 143 148 99 78 

CELL_TYPES 100
12 
12 
12 
12 
12 
12 
12 
12 
12 
12 
12 
12 
12 
12 
12 
12 
12 
12 
12 
12 
12 
12 
12 
12 
12 
12 
12 
12 
12 
12 
12 
12 
12 
12 
12 
12 
12 
12 
12 
12 
12 
12 
12 
12 
12 
12 
12 
12 
12 
12 
12 
12 
12 
12 
12 
12 
12 
12 
12 
12 
12 
12 
12 
12 
12 
12 
12 
12 
12 
12 
12 
12 
12 
12 
12 
12 
12 
12 
12 
12 
12 
12 
12 
12 
12 
12 
12 
12 
12 
12 
12 
12 
12 
12 
12 
12 
12 
12 
12 
12 
POINT_DATA 180
SCALARS GMDS_ID int 1
LOOKUP_TABLE default
0 1 2 3 4 5 6 7 8 9 10 11 12 13 14 15 16 17 18 19 20 21 22 23 24 25 26 27 28 29 30 31 32 33 34 35 36 37 38 39 40 41 42 43 44 45 46 47 48 49 50 51 52 53 54 55 56 57 58 59 60 61 62 63 64 65 66 67 68 69 70 71 72 73 74 75 76 77 78 79 80 81 82 83 84 85 86 87 88 89 90 91 92 93 94 95 96 97 98 99 100 101 102 103 104 105 106 107 108 109 110 111 112 113 114 115 116 117 118 119 120 121 122 123 124 125 126 127 128 129 130 131 132 133 134 135 136 137 138 139 140 141 142 143 144 145 146 147 148 149 150 151 152 153 154 155 156 157 158 159 160 161 162 163 164 165 166 167 168 169 170 171 172 173 174 175 176 177 178 179 
SCALARS geom_link_dim int 1
LOOKUP_TABLE default
1 1 1 1 1 1 1 1 2 2 2 2 2 2 3 3 2 2 2 3 0 3 3 2 2 3 2 2 3 0 3 3 2 2 3 2 3 0 0 3 3 2 2 3 2 3 3 2 0 3 3 0 3 2 3 0 3 2 3 2 0 3 3 2 2 3 0 3 2 3 0 3 0 3 3 2 0 3 3 2 3 0 0 3 2 3 2 3 0 3 0 3 2 3 0 3 3 0 2 3 2 3 0 3 3 0 0 3 0 3 3 0 2 3 3 2 0 3 0 3 0 2 3 0 3 0 3 3 0 3 0 0 3 2 3 0 3 2 3 3 2 0 3 0 3 0 2 3 0 3 3 0 3 2 3 0 2 3 0 3 3 0 0 3 0 2 3 0 3 3 0 0 0 3 0 3 0 3 3 2 
SCALARS geom_link_id int 1
LOOKUP_TABLE default
18 20 24 21 17 19 23 22 32 33 24 34 31 29 12 17 25 28 30 13 0 18 10 35 36 11 23 31 17 0 18 12 29 28 11 25 12 0 0 12 13 34 24 10 32 17 17 33 0 18 18 0 10 35 13 0 11 36 13 30 0 11 10 23 32 17 0 13 33 10 0 17 0 13 12 34 0 12 10 24 13 0 0 13 30 18 35 10 0 18 0 10 36 11 0 13 11 0 23 10 31 17 0 18 17 0 0 17 0 18 18 0 28 11 12 29 0 11 0 12 0 25 12 0 11 0 18 18 0 17 0 0 17 31 17 0 18 28 11 12 29 0 11 0 12 0 25 12 0 11 17 -1 10 33 17 -1 32 17 -1 13 17 -1 -1 13 -1 34 12 -1 13 12 -1 -1 -1 12 -1 10 -1 12 10 24 


CELL_DATA 100
SCALARS GMDS_ID int 1
LOOKUP_TABLE default
0 2 3 4 5 7 8 9 10 11 12 13 14 15 16 18 19 20 21 22 23 24 25 26 27 28 29 30 31 32 34 35 36 38 39 40 43 44 45 46 47 50 51 54 55 56 57 58 59 60 61 62 63 65 66 67 68 69 70 71 73 75 76 77 78 79 82 83 84 85 86 87 92 93 94 95 96 97 98 99 100 101 102 103 104 105 106 107 108 109 110 111 112 113 114 115 116 117 118 119 

SCALARS is_in int 1
LOOKUP_TABLE default
1 1 1 1 1 1 1 1 1 1 1 1 1 1 1 1 1 1 1 1 1 1 1 1 1 1 1 0 1 1 1 1 1 1 1 1 1 1 1 1 1 1 1 1 1 1 1 1 1 1 1 1 1 1 1 1 1 1 1 1 1 1 1 1 1 1 1 1 1 1 1 1 1 1 1 1 1 1 1 1 1 1 1 1 1 1 1 1 1 1 1 1 1 0 1 1 1 1 1 1 

SCALARS geom_link_dim int 1
LOOKUP_TABLE default
0 0 0 0 0 0 0 0 0 0 0 0 0 0 0 0 0 0 0 0 0 0 0 0 0 0 0 0 0 0 0 0 0 0 0 0 0 0 0 0 0 0 0 0 0 0 0 0 0 0 0 0 0 0 0 0 0 0 0 0 0 0 0 0 0 0 0 0 0 0 0 0 0 0 0 0 0 0 0 0 0 0 0 0 0 0 0 0 0 0 0 0 0 0 0 0 0 0 0 0 

SCALARS geom_link_id int 1
LOOKUP_TABLE default
-1 0 0 0 0 0 0 0 0 0 0 -1 -1 0 0 0 0 0 0 0 0 0 -1 0 0 0 0 0 0 0 0 0 0 0 -1 0 -1 0 0 0 0 0 0 0 0 0 0 0 0 0 -1 0 -1 -1 0 -1 0 -1 0 -1 -1 -1 0 -1 0 -1 0 0 0 0 0 0 0 0 0 0 -1 -1 -1 -1 -1 -1 -1 -1 -1 -1 -1 -1 -1 -1 -1 -1 -1 -1 -1 -1 -1 -1 -1 -1 

