# vtk DataFile Version 3.0
Generated by GMDS VTK Writer

ASCII
DATASET UNSTRUCTURED_GRID
POINTS 136 float
-5 -5 -5
-5 5 -5
5 5 -5
5 -5 -5
-5 -5 5
-5 5 5
5 5 5
5 -5 5
4 -5 -5
4 5 -5
4 5 5
4 -5 5
-5 3 -5
-5 3 5
4 3 5
4 3 -5
5 3 5
-5 -1 -5
-5 -1 5
4 -1 5
4 -1 -5
5 -1 5
5 -1 -5
-5 -5 -1
4 -5 -1
4 -1 -1
-5 -1 -1
-5 3 -1
4 3 -1
4 5 -1
-5 5 -1
5 5 -1
5 -5 -1
5 -1 -1
1 -5 -1
1 -1 -1
1 -1 5
1 -5 5
0.999999999999999 -5 -5
1 -1 -5
1 5 -5
1 3 -5
1 3 -1
1 5 -1
1 3 5
1 5 5
4 4 -5
5 4 -5
5 4 -1
4 4 -1
5 4 5
4 4 5
-5 4 -5
-5 4 -1
1 4 -1
1 4 -5
-5 4 5
1 4 5
4 4 1
5 4 1
5 5 1
4 5 1
4 3 1
5 3 1
1 -5 1
1 -1 1
4 -1 1
4 -5 1
-5 -5 1
-5 -1 1
5 -5 1
5 -1 1
-5 3 1
1 3 1
1 4 1
-5 4 1
1 5 1
-5 5 1
4 4 4
5 4 4
5 5 4
4 5 4
4 3 4
5 3 4
1 -5 4
1 -1 4
4 -1 4
4 -5 4
-5 -5 4
-5 -1 4
5 -5 4
5 -1 4
-5 3 4
1 3 4
1 4 4
-5 4 4
1 5 4
-5 5 4
-5 1 4
1 1 4
1 1 1
-5 1 1
-5 0.999999999999999 5
1 1 5
1 1 -5
1 1 -1
4 1 -1
4 1 -5
-5 1 -5
-5 1 -1
4 1 4
4 1 1
4 1 5
1 -5 3
1 -1 3
4 -1 3
4 -5 3
4 3 3
5 3 3
5 4 3
4 4 3
5 5 3
4 5 3
1 1 3
-5 1 3
-5 3 3
1 3 3
-5 -1 3
-5 -5 3
5 -5 3
5 -1 3
1 4 3
-5 4 3
1 5 3
-5 5 3
4 1 3

CELLS 60 540
8 7 11 19 21 90 87 86 91 
8 38 39 35 34 8 20 25 24 
8 52 53 54 55 1 30 43 40 
8 0 17 26 23 38 39 35 34 
8 64 65 66 67 34 35 25 24 
8 46 47 48 49 9 2 31 29 
8 3 8 20 22 32 24 25 33 
8 4 18 36 37 88 89 85 84 
8 19 36 85 86 112 103 99 110 
8 78 79 80 81 120 119 121 122 
8 120 119 121 122 58 59 60 61 
8 37 36 19 11 84 85 86 87 
8 41 42 28 15 55 54 49 46 
8 55 54 49 46 40 43 29 9 
8 14 16 50 51 82 83 79 78 
8 51 50 6 10 78 79 80 81 
8 108 109 105 104 12 27 42 41 
8 68 69 65 64 23 26 35 34 
8 17 26 35 39 108 109 105 104 
8 70 67 66 71 32 24 25 33 
8 104 105 106 107 41 42 28 15 
8 84 85 86 87 113 114 115 116 
8 39 35 25 20 104 105 106 107 
8 113 114 115 116 64 65 66 67 
8 102 103 99 98 13 44 93 92 
8 72 73 74 75 27 42 54 53 
8 18 36 85 89 102 103 99 98 
8 75 74 76 77 53 54 43 30 
8 62 73 74 58 28 42 54 49 
8 58 74 76 61 49 54 43 29 
8 123 124 125 126 100 101 72 73 
8 82 83 79 78 117 118 119 120 
8 117 118 119 120 62 63 59 58 
8 13 44 57 56 92 93 94 95 
8 56 57 45 5 95 94 96 97 
8 14 44 57 51 82 93 94 78 
8 51 57 45 10 78 94 96 81 
8 112 103 99 110 14 44 93 82 
8 66 65 35 25 111 100 105 106 
8 111 100 105 106 62 73 42 28 
8 69 65 35 26 101 100 105 109 
8 101 100 105 109 72 73 42 27 
8 85 89 98 99 114 127 124 123 
8 114 127 124 123 65 69 101 100 
8 88 89 85 84 128 127 114 113 
8 128 127 114 113 68 69 65 64 
8 90 87 86 91 129 116 115 130 
8 129 116 115 130 70 67 66 71 
8 92 93 94 95 125 126 131 132 
8 125 126 131 132 72 73 74 75 
8 95 94 96 97 132 131 133 134 
8 132 131 133 134 75 74 76 77 
8 82 93 94 78 117 126 131 120 
8 117 126 131 120 62 73 74 58 
8 78 94 96 81 120 131 133 122 
8 120 131 133 122 58 74 76 61 
8 85 86 110 99 114 115 135 123 
8 114 115 135 123 65 66 111 100 
8 99 110 82 93 123 135 117 126 
8 123 135 117 126 100 111 62 73 

CELL_TYPES 60
12 
12 
12 
12 
12 
12 
12 
12 
12 
12 
12 
12 
12 
12 
12 
12 
12 
12 
12 
12 
12 
12 
12 
12 
12 
12 
12 
12 
12 
12 
12 
12 
12 
12 
12 
12 
12 
12 
12 
12 
12 
12 
12 
12 
12 
12 
12 
12 
12 
12 
12 
12 
12 
12 
12 
12 
12 
12 
12 
12 
POINT_DATA 136
SCALARS GMDS_ID int 1
LOOKUP_TABLE default
0 1 2 3 4 5 6 7 8 9 10 11 12 13 14 15 16 18 19 20 21 22 23 24 25 26 27 28 29 30 31 33 34 35 36 37 38 39 40 41 42 43 44 45 46 47 48 49 50 51 52 53 54 55 56 57 58 59 60 61 62 63 64 65 66 67 68 69 70 71 72 73 74 75 76 77 78 79 80 81 82 83 84 85 86 87 88 89 90 91 92 93 94 95 96 97 98 99 100 101 102 103 104 105 106 107 108 109 110 111 112 113 114 115 116 117 118 119 120 121 122 123 124 125 126 127 128 129 130 131 132 133 134 135 136 137 
SCALARS geom_link_dim int 1
LOOKUP_TABLE default
1 1 1 1 1 1 1 1 2 2 2 2 2 2 2 2 2 2 2 2 2 2 2 2 3 0 3 2 0 2 2 2 2 3 3 0 3 2 2 3 2 3 0 3 3 2 2 2 3 0 2 3 2 2 0 3 2 3 0 3 2 2 0 3 3 0 0 3 2 3 2 3 3 0 0 3 3 2 0 3 2 3 1 3 3 0 0 3 2 3 2 3 3 0 0 3 3 2 3 0 0 3 2 3 3 0 0 2 2 3 0 0 2 3 0 0 3 1 3 3 0 2 3 0 3 3 0 3 2 2 3 0 3 3 2 0 
SCALARS geom_link_id int 1
LOOKUP_TABLE default
18 20 24 21 17 19 23 22 30 36 23 35 32 33 24 34 24 32 33 24 34 24 34 31 18 -1 17 32 -1 25 28 25 29 12 18 0 10 35 30 13 36 13 -1 11 10 23 34 34 12 -1 24 10 32 32 -1 13 33 10 -1 12 25 25 -1 12 18 0 -1 18 31 17 29 12 17 0 0 17 11 28 0 12 25 11 13 12 18 0 -1 18 31 17 29 12 17 -1 0 17 11 28 17 -1 0 17 33 10 13 0 -1 34 32 17 -1 -1 24 18 0 -1 18 14 12 12 0 25 11 -1 17 17 -1 17 31 29 12 0 17 11 28 -1 


CELL_DATA 60
SCALARS GMDS_ID int 1
LOOKUP_TABLE default
1 3 4 5 9 11 13 14 17 18 19 21 22 23 25 27 28 29 30 31 32 33 34 35 36 37 38 39 41 43 44 45 46 47 49 51 53 55 56 57 58 59 60 61 62 63 64 65 66 67 68 69 70 71 72 73 74 75 76 77 

SCALARS is_in int 1
LOOKUP_TABLE default
1 1 1 1 1 1 1 1 1 1 1 1 1 1 1 1 1 1 1 1 1 1 1 1 1 1 1 1 1 1 1 1 1 1 1 1 1 1 1 1 1 1 1 1 1 1 1 1 1 1 1 1 1 1 1 1 1 1 1 1 

SCALARS geom_link_dim int 1
LOOKUP_TABLE default
0 0 0 0 0 0 0 0 0 0 0 0 0 0 0 0 0 0 0 0 0 0 0 0 0 0 0 0 0 0 0 0 0 0 0 0 0 0 0 0 0 0 0 0 0 0 0 0 0 0 0 0 0 0 0 0 0 0 0 0 

SCALARS geom_link_id int 1
LOOKUP_TABLE default
0 0 0 0 0 0 0 0 0 0 0 0 0 0 0 0 0 0 0 0 0 0 0 0 0 0 0 0 0 0 0 0 0 0 0 0 0 0 0 0 0 0 0 0 0 0 0 0 0 0 0 0 0 0 0 0 0 0 0 0 

