# vtk DataFile Version 3.0
Generated by GMDS VTK Writer

ASCII
DATASET UNSTRUCTURED_GRID
POINTS 216 float
-5 -5 -5
-5 5 -5
5 5 -5
5 -5 -5
-5 -5 5
-5 5 5
5 5 5
5 -5 5
1 -5 -5
1 5 -5
1 5 5
1 -5 5
-5 4 -5
-5 4 5
1 4 5
1 4 -5
5 4 5
5 4 -5
-5 5 -1
1 5 -1
1 4 -1
-5 4 -1
1 -5 -1
-5 -5 -1
5 5 -1
5 4 -1
5 -5 -1
-5 -1 -5
1 -1 -5
1 -1 -1
-5 -1 -1
1 -1 5
-5 -1 5
5 -1 -5
5 -1 -1
5 -1 5
-0.999999999999999 -1 5
-1 -1 -1
-1 4 -1
-1 4 5
-0.999999999999999 5 -1
-0.999999999999999 5 5
-0.999999999999999 -5 5
-1 -5 -1
-0.999999999999999 5 -5
-1 4 -5
-1 -1 -5
-1 -5 -5
4 5 -5
4 4 -5
4 4 -1
4 5 -1
4 4 5
4 5 5
4 -5 -5
4 -5 -1
4 -1 -1
4 -1 -5
4 -5 5
4 -1 5
-0.999999999999999 5 1
-1 4 1
-5 4 1
-5 5 1
1 5 1
1 4 1
4 5 0.999999999999999
4 4 1
5 5 0.999999999999999
5 4 1
-1 -1 1
-5 -1 1
1 -1 1
1 -5 1
-0.999999999999999 -5 0.999999999999999
-5 -5 0.999999999999999
5 -5 0.999999999999999
5 -1 1
4 -1 1
4 -5 0.999999999999999
1 5 4
1 4 4
-1 4 4
-0.999999999999999 5 4
-5 4 4
-5 5 4
4 5 4
4 4 4
5 5 4
5 4 4
-0.999999999999999 -1 4
-5 -1 4
1 -1 4
1 -5 4
-0.999999999999999 -5 4
-5 -5 4
5 -5 4
5 -1 4
4 -1 4
4 -5 4
4 1 4
5 1 4
5 0.999999999999999 5
4 1 5
4 1 1
5 1 1
4 1 -5
4 1 -1
1 1 -1
1 1 -5
5 0.999999999999999 -5
5 1 -1
1 1 4
1 1 5
-1 1 -1
-1 1 1
1 1 1
-5 1 -1
-5 1 1
-0.999999999999999 1 4
-5 1 4
-5 0.999999999999999 5
-0.999999999999999 1 5
-1 1 -5
-5 1 -5
4 3 4
5 3 4
5 3 5
4 3 5
4 3 1
5 3 1
4 3 -5
4 3 -1
1 3 -1
1 3 -5
5 3 -5
5 3 -1
1 3 4
1 3 5
-1 3 -1
-1 3 1
1 3 1
-5 3 -1
-5 3 1
-1 3 4
-5 3 4
-5 3 5
-1 3 5
-1 3 -5
-5 3 -5
1 5 3
1 4 3
-1 4 3
-0.999999999999999 5 3
-5 4 3
-5 5 3
4 5 3
4 4 3
5 5 3
5 4 3
4 1 3
5 1 3
5 -1 3
4 -1 3
1 -5 3
1 -1 3
-0.999999999999999 -1 3
-0.999999999999999 -5 3
-5 -1 3
-5 -5 3
5 -5 3
4 -5 3
4 3 3
5 3 3
-1 1 3
1 1 3
-5 1 3
1 3 3
-1 3 3
-5 3 3
3 5 -5
3 4 -5
3 4 -1
3 5 -1
3 5 1
3 4 1
3 5 4
3 4 4
3 4 5
3 5 5
3 -1 3
3 1 3
3 1 4
3 -1 4
3 -5 -5
3 -5 -1
3 -1 -1
3 -1 -5
3 -1 1
3 1 1
3 1 -5
3 1 -1
3 3 -5
3 3 -1
3 1 5
3 -1 5
3 -5 1
3 3 5
3 3 4
3 -5 4
3 -5 5
3 5 3
3 4 3
3 3 1
3 -5 3
3 3 3

CELLS 124 1116
8 3 26 34 33 54 55 56 57 
8 17 25 50 49 135 136 132 131 
8 135 136 132 131 110 111 107 106 
8 2 17 25 24 48 49 50 51 
8 198 199 191 190 72 116 175 165 
8 78 104 160 163 198 199 191 190 
8 88 89 87 86 6 16 52 53 
8 204 192 193 205 113 112 92 31 
8 48 49 50 51 180 181 182 183 
8 19 20 38 40 64 65 61 60 
8 73 72 70 74 164 165 166 167 
8 40 38 21 18 60 61 62 63 
8 55 56 78 79 195 196 198 206 
8 9 15 20 19 44 45 38 40 
8 44 45 38 40 1 12 21 18 
8 8 22 29 28 47 43 37 46 
8 47 43 37 46 0 23 30 27 
8 86 87 52 53 186 187 188 189 
8 182 183 184 185 20 19 64 65 
8 83 82 84 85 41 39 13 5 
8 195 196 198 206 22 29 72 73 
8 80 81 82 83 10 14 39 41 
8 49 50 132 131 181 182 203 202 
8 24 25 50 51 68 69 67 66 
8 164 165 166 167 93 92 90 94 
8 110 111 107 106 33 34 56 57 
8 20 38 61 65 133 139 140 141 
8 74 70 71 75 167 166 168 169 
8 22 29 37 43 73 72 70 74 
8 43 37 30 23 74 70 71 75 
8 167 166 168 169 94 90 91 95 
8 26 34 56 55 76 77 78 79 
8 103 100 98 59 204 192 193 205 
8 76 77 78 79 170 162 163 171 
8 87 89 16 52 125 126 127 128 
8 100 101 102 103 98 97 35 59 
8 125 126 127 128 100 101 102 103 
8 170 162 163 171 96 97 98 99 
8 202 203 201 200 134 133 108 109 
8 93 92 90 94 11 31 36 42 
8 131 132 107 106 202 203 201 200 
8 94 90 91 95 42 36 32 4 
8 200 201 196 197 109 108 29 28 
8 96 97 98 99 7 35 59 58 
8 106 107 56 57 200 201 196 197 
8 21 38 61 62 142 139 140 143 
8 142 139 140 143 117 114 115 118 
8 133 139 140 141 108 114 115 116 
8 160 161 162 163 100 101 97 98 
8 54 55 56 57 194 195 196 197 
8 104 105 77 78 160 161 162 163 
8 117 114 115 118 30 37 70 71 
8 158 159 157 156 88 89 87 86 
8 119 120 121 122 90 91 32 36 
8 68 69 67 66 158 159 157 156 
8 190 191 192 193 165 175 112 92 
8 109 108 114 123 28 29 37 46 
8 123 114 117 124 46 37 30 27 
8 153 152 154 155 83 82 84 85 
8 119 112 113 122 90 92 31 36 
8 60 61 62 63 153 152 154 155 
8 194 195 196 197 8 22 29 28 
8 150 151 152 153 80 81 82 83 
8 64 65 61 60 150 151 152 153 
8 111 107 104 105 34 56 78 77 
8 82 84 13 39 144 145 146 147 
8 144 145 146 147 119 120 121 122 
8 50 51 66 67 182 183 184 185 
8 180 181 182 183 9 15 20 19 
8 15 20 38 45 134 133 139 148 
8 134 133 139 148 109 108 114 123 
8 45 38 21 12 148 139 142 149 
8 148 139 142 149 123 114 117 124 
8 82 81 14 39 144 137 138 147 
8 144 137 138 147 119 112 113 122 
8 163 160 100 98 190 191 192 193 
8 186 187 188 189 80 81 14 10 
8 25 50 67 69 136 132 129 130 
8 136 132 129 130 111 107 104 105 
8 129 130 105 104 172 173 161 160 
8 172 173 161 160 125 126 101 100 
8 67 69 130 129 157 159 173 172 
8 157 159 173 172 87 89 126 125 
8 115 116 72 70 174 175 165 166 
8 174 175 165 166 119 112 92 90 
8 115 118 71 70 174 176 168 166 
8 174 176 168 166 119 120 91 90 
8 61 65 141 140 152 151 177 178 
8 152 151 177 178 82 81 137 144 
8 140 141 116 115 178 177 175 174 
8 178 177 175 174 144 137 112 119 
8 61 62 143 140 152 154 179 178 
8 152 154 179 178 82 84 145 144 
8 140 143 118 115 178 179 176 174 
8 178 179 176 174 144 145 120 119 
8 181 182 203 202 15 20 133 134 
8 128 125 100 103 207 208 192 204 
8 207 208 192 204 138 137 112 113 
8 52 87 125 128 188 187 208 207 
8 188 187 208 207 14 81 137 138 
8 98 99 58 59 193 209 210 205 
8 193 209 210 205 92 93 11 31 
8 156 157 87 86 211 212 187 186 
8 211 212 187 186 150 151 81 80 
8 66 67 157 156 184 185 212 211 
8 184 185 212 211 64 65 151 150 
8 107 104 78 56 201 199 198 196 
8 201 199 198 196 108 116 72 29 
8 50 67 129 132 182 185 213 203 
8 182 185 213 203 20 65 141 133 
8 132 129 104 107 203 213 199 201 
8 203 213 199 201 133 141 116 108 
8 78 79 171 163 198 206 214 190 
8 198 206 214 190 72 73 164 165 
8 163 171 99 98 190 214 209 193 
8 190 214 209 193 165 164 93 92 
8 104 129 172 160 199 213 215 191 
8 199 213 215 191 116 141 177 175 
8 160 172 125 100 191 215 208 192 
8 191 215 208 192 175 177 137 112 
8 67 129 172 157 185 213 215 212 
8 185 213 215 212 65 141 177 151 
8 157 172 125 87 212 215 208 187 
8 212 215 208 187 151 177 137 81 

CELL_TYPES 124
12 
12 
12 
12 
12 
12 
12 
12 
12 
12 
12 
12 
12 
12 
12 
12 
12 
12 
12 
12 
12 
12 
12 
12 
12 
12 
12 
12 
12 
12 
12 
12 
12 
12 
12 
12 
12 
12 
12 
12 
12 
12 
12 
12 
12 
12 
12 
12 
12 
12 
12 
12 
12 
12 
12 
12 
12 
12 
12 
12 
12 
12 
12 
12 
12 
12 
12 
12 
12 
12 
12 
12 
12 
12 
12 
12 
12 
12 
12 
12 
12 
12 
12 
12 
12 
12 
12 
12 
12 
12 
12 
12 
12 
12 
12 
12 
12 
12 
12 
12 
12 
12 
12 
12 
12 
12 
12 
12 
12 
12 
12 
12 
12 
12 
12 
12 
12 
12 
12 
12 
12 
12 
12 
12 
POINT_DATA 216
SCALARS GMDS_ID int 1
LOOKUP_TABLE default
0 1 2 3 4 5 6 7 8 9 10 11 12 13 14 15 16 17 18 19 20 21 22 23 24 25 26 27 28 29 30 31 32 33 34 35 36 37 38 39 40 41 42 43 44 45 46 47 48 49 50 51 52 53 54 55 56 57 58 59 60 61 62 63 64 65 66 67 68 69 70 71 72 73 74 75 76 77 78 79 80 81 82 83 84 85 86 87 88 89 90 91 92 93 94 95 96 97 98 99 100 101 102 103 104 105 106 107 108 109 110 111 112 113 114 115 116 117 118 119 120 121 122 123 124 125 126 127 128 129 130 131 132 133 134 135 136 137 138 139 140 141 142 143 144 145 146 147 148 149 150 151 152 153 154 155 156 157 158 159 160 161 162 163 164 165 166 167 168 169 170 171 172 173 174 175 176 177 178 179 180 181 182 183 184 185 186 187 188 189 190 191 192 193 194 195 196 197 198 199 200 201 202 203 204 205 206 207 208 209 210 211 212 213 214 215 
SCALARS geom_link_dim_0 int 1
LOOKUP_TABLE default
0 0 0 0 0 0 0 0 0 0 0 0 0 0 0 0 0 0 0 0 0 0 0 0 0 0 0 0 0 0 0 0 0 0 0 0 0 0 0 0 0 0 0 0 0 0 0 0 0 0 0 0 0 0 0 0 0 0 0 0 0 0 0 0 0 0 0 0 0 0 0 0 0 0 0 0 0 0 0 0 0 0 0 0 0 0 0 0 0 0 0 0 0 0 0 0 0 0 0 0 0 0 0 0 0 0 0 0 0 0 0 0 0 0 0 0 0 0 0 0 0 0 0 0 0 0 0 0 0 0 0 0 0 0 0 0 0 0 0 0 0 0 0 0 0 0 0 0 0 0 0 0 0 0 0 0 0 0 0 0 0 0 0 0 0 0 0 0 0 0 0 0 0 0 0 0 0 0 0 0 0 0 0 0 0 0 0 0 0 0 0 0 0 0 0 0 0 0 0 0 0 0 0 0 0 0 0 0 0 0 0 0 0 0 0 0 
SCALARS geom_link_id_0 int 1
LOOKUP_TABLE default
0 0 0 0 0 0 0 0 0 0 0 0 0 0 0 0 0 0 0 0 0 0 0 0 0 0 0 0 0 0 0 0 0 0 0 0 0 0 0 0 0 0 0 0 0 0 0 0 0 0 0 0 0 0 0 0 0 0 0 0 0 0 0 0 0 0 0 0 0 0 0 0 0 0 0 0 0 0 0 0 0 0 0 0 0 0 0 0 0 0 0 0 0 0 0 0 0 0 0 0 0 0 0 0 0 0 0 0 0 0 0 0 0 0 0 0 0 0 0 0 0 0 0 0 0 0 0 0 0 0 0 0 0 0 0 0 0 0 0 0 0 0 0 0 0 0 0 0 0 0 0 0 0 0 0 0 0 0 0 0 0 0 0 0 0 0 0 0 0 0 0 0 0 0 0 0 0 0 0 0 0 0 0 0 0 0 0 0 0 0 0 0 0 0 0 0 0 0 0 0 0 0 0 0 0 0 0 0 0 0 0 0 0 0 0 0 


CELL_DATA 124
SCALARS GMDS_ID int 1
LOOKUP_TABLE default
1 2 3 5 6 7 10 11 12 13 14 15 17 18 19 22 23 24 25 26 27 28 29 30 31 33 34 35 36 38 39 40 41 43 44 45 46 47 48 49 50 51 52 53 54 56 57 59 60 61 62 63 64 65 66 67 69 71 72 73 74 75 76 78 79 80 81 82 83 84 85 86 87 88 89 90 91 94 95 98 99 100 101 102 103 106 107 108 109 110 111 116 117 118 119 120 121 122 123 124 125 126 127 128 129 130 131 132 133 134 135 136 137 138 139 140 141 142 143 144 145 146 147 148 

SCALARS geom_link_dim_0 int 1
LOOKUP_TABLE default
0 0 0 0 0 0 0 0 0 0 0 0 0 0 0 0 0 0 0 0 0 0 0 0 0 0 0 0 0 0 0 0 0 0 0 0 0 0 0 0 0 0 0 0 0 0 0 0 0 0 0 0 0 0 0 0 0 0 0 0 0 0 0 0 0 0 0 0 0 0 0 0 0 0 0 0 0 0 0 0 0 0 0 0 0 0 0 0 0 0 0 0 0 0 0 0 0 0 0 0 0 0 0 0 0 0 0 0 0 0 0 0 0 0 0 0 0 0 0 0 0 0 0 0 

SCALARS geom_link_id_0 int 1
LOOKUP_TABLE default
0 0 0 0 0 0 0 0 0 0 0 0 0 0 0 0 0 0 0 0 0 0 0 0 0 0 0 0 0 0 0 0 0 0 0 0 0 0 0 0 0 0 0 0 0 0 0 0 0 0 0 0 0 0 0 0 0 0 0 0 0 0 0 0 0 0 0 0 0 0 0 0 0 0 0 0 0 0 0 0 0 0 0 0 0 0 0 0 0 0 0 0 0 0 0 0 0 0 0 0 0 0 0 0 0 0 0 0 0 0 0 0 0 0 0 0 0 0 0 0 0 0 0 0 

