# vtk DataFile Version 3.0
Generated by GMDS VTK Writer

ASCII
DATASET UNSTRUCTURED_GRID
POINTS 64 float
-5 -5 -5
-5 5 -5
5 5 -5
5 -5 -5
-5 -5 5
-5 5 5
5 5 5
5 -5 5
4 -5 -5
4 5 -5
4 5 5
4 -5 5
-5 1 -5
-5 1 5
4 1 5
4 1 -5
5 1 5
5 1 -5
-5 -5 -1
4 -5 -1
4 1 -1
-5 1 -1
4 5 -1
-5 5 -1
5 -5 -1
5 1 -1
5 5 -1
-5 3 -1
4 3 -1
4 3 5
-5 3 5
-5 3 -5
4 3 -5
5 3 -5
5 3 -1
5 3 5
-1 -5 -5
-1 1 -5
-1 1 -1
-1 -5 -1
-1 3 5
-1 3 -1
-1 5 -1
-1 5 5
-1 1 5
-1 -5 5
-1 3 -5
-1 5 -5
5 -5 3
4 -5 3
4 1 3
5 1 3
5 3 3
4 3 3
5 5 3
4 5 3
-5 5 3
-5 3 3
-1 3 3
-1 5 3
-5 1 3
-1 1 3
-5 -5 3
-1 -5 3

CELLS 27 243
8 7 11 14 16 48 49 50 51 
8 14 16 35 29 50 51 52 53 
8 53 52 54 55 28 34 26 22 
8 48 49 50 51 24 19 20 25 
8 29 35 6 10 53 52 54 55 
8 50 51 52 53 20 25 34 28 
8 3 8 15 17 24 19 20 25 
8 36 37 38 39 8 15 20 19 
8 0 12 21 18 36 37 38 39 
8 15 17 25 20 32 33 34 28 
8 32 33 34 28 9 2 26 22 
8 12 21 27 31 37 38 41 46 
8 37 38 41 46 15 20 28 32 
8 31 27 23 1 46 41 42 47 
8 46 41 42 47 32 28 22 9 
8 5 30 40 43 56 57 58 59 
8 56 57 58 59 23 27 41 42 
8 43 40 29 10 59 58 53 55 
8 59 58 53 55 42 41 28 22 
8 13 30 40 44 60 57 58 61 
8 60 57 58 61 21 27 41 38 
8 44 40 29 14 61 58 53 50 
8 61 58 53 50 38 41 28 20 
8 4 13 44 45 62 60 61 63 
8 62 60 61 63 18 21 38 39 
8 45 44 14 11 63 61 50 49 
8 63 61 50 49 39 38 20 19 

CELL_TYPES 27
12 
12 
12 
12 
12 
12 
12 
12 
12 
12 
12 
12 
12 
12 
12 
12 
12 
12 
12 
12 
12 
12 
12 
12 
12 
12 
12 
POINT_DATA 64
SCALARS GMDS_ID int 1
LOOKUP_TABLE default
0 1 2 3 4 5 6 7 8 9 10 11 12 13 14 15 16 17 18 19 20 21 22 23 24 25 26 27 28 29 30 31 32 33 34 35 36 37 38 39 40 41 42 43 44 45 46 47 48 49 50 51 52 53 54 55 56 57 58 59 60 61 62 63 
SCALARS geom_link_dim_0 int 1
LOOKUP_TABLE default
0 0 0 0 0 0 0 0 0 0 0 0 0 0 0 0 0 0 0 0 0 0 0 0 0 0 0 0 0 0 0 0 0 0 0 0 0 0 0 0 0 0 0 0 0 0 0 0 0 0 0 0 0 0 0 0 0 0 0 0 0 0 0 0 
SCALARS geom_link_id_0 int 1
LOOKUP_TABLE default
0 0 0 0 0 0 0 0 0 0 0 0 0 0 0 0 0 0 0 0 0 0 0 0 0 0 0 0 0 0 0 0 0 0 0 0 0 0 0 0 0 0 0 0 0 0 0 0 0 0 0 0 0 0 0 0 0 0 0 0 0 0 0 0 


CELL_DATA 27
SCALARS GMDS_ID int 1
LOOKUP_TABLE default
0 1 2 3 4 5 8 10 11 12 13 20 21 22 23 24 25 26 27 28 29 30 31 32 33 34 35 

SCALARS geom_link_dim_0 int 1
LOOKUP_TABLE default
0 0 0 0 0 0 0 0 0 0 0 0 0 0 0 0 0 0 0 0 0 0 0 0 0 0 0 

SCALARS geom_link_id_0 int 1
LOOKUP_TABLE default
0 0 0 0 0 0 0 0 0 0 0 0 0 0 0 0 0 0 0 0 0 0 0 0 0 0 0 

