# vtk DataFile Version 3.0
Generated by GMDS VTK Writer

ASCII
DATASET UNSTRUCTURED_GRID
POINTS 64 float
-5 -5 -5
-5 5 -5
5 5 -5
5 -5 -5
-5 -5 5
-5 5 5
5 5 5
5 -5 5
-5 1 -5
-5 1 5
5 1 5
5 1 -5
-5 -5 1
5 -5 1
5 1 1
-5 1 1
5 5 1
-5 5 1
-1 -5 -5
-1 1 -5
-1 1 1
-1 -5 1
-1 1 5
-1 -5 5
-1 5 -5
-1 5 1
-1 5 5
-1 4 -5
-1 4 1
5 4 1
5 4 -5
-5 4 -5
-5 4 1
-5 4 5
-1 4 5
5 4 5
-5 -5 4
-5 1 4
-1 1 4
-1 -5 4
5 1 4
5 -5 4
-1 4 4
-5 4 4
-1 5 4
-5 5 4
5 4 4
5 5 4
4 4 -5
4 4 1
4 5 1
4 5 -5
4 1 -5
4 1 1
4 -5 -5
4 -5 1
4 1 4
4 -5 4
4 1 5
4 -5 5
4 4 5
4 4 4
4 5 5
4 5 4

CELLS 27 243
8 31 32 28 27 1 17 25 24 
8 0 8 15 12 18 19 20 21 
8 8 15 20 19 31 32 28 27 
8 54 52 53 55 3 11 14 13 
8 18 19 20 21 54 52 53 55 
8 36 37 38 39 12 15 20 21 
8 4 9 22 23 36 37 38 39 
8 52 53 49 48 11 14 29 30 
8 19 20 28 27 52 53 49 48 
8 48 49 50 51 30 29 16 2 
8 27 28 25 24 48 49 50 51 
8 9 22 34 33 37 38 42 43 
8 37 38 42 43 15 20 28 32 
8 33 34 26 5 43 42 44 45 
8 43 42 44 45 32 28 25 17 
8 38 39 21 20 56 57 55 53 
8 56 57 55 53 40 41 13 14 
8 22 23 39 38 58 59 57 56 
8 58 59 57 56 10 7 41 40 
8 22 34 42 38 58 60 61 56 
8 58 60 61 56 10 35 46 40 
8 38 42 28 20 56 61 49 53 
8 56 61 49 53 40 46 29 14 
8 26 34 42 44 62 60 61 63 
8 62 60 61 63 6 35 46 47 
8 44 42 28 25 63 61 49 50 
8 63 61 49 50 47 46 29 16 

CELL_TYPES 27
12 
12 
12 
12 
12 
12 
12 
12 
12 
12 
12 
12 
12 
12 
12 
12 
12 
12 
12 
12 
12 
12 
12 
12 
12 
12 
12 
POINT_DATA 64
SCALARS GMDS_ID int 1
LOOKUP_TABLE default
0 1 2 3 4 5 6 7 8 9 10 11 12 13 14 15 16 17 18 19 20 21 22 23 24 25 26 27 28 29 30 31 32 33 34 35 36 37 38 39 40 41 42 43 44 45 46 47 48 49 50 51 52 53 54 55 56 57 58 59 60 61 62 63 
SCALARS geom_link_dim int 1
LOOKUP_TABLE default
1 1 1 1 1 1 1 1 2 2 2 2 2 2 3 3 2 2 2 3 0 3 3 2 2 3 2 3 0 3 2 2 3 2 3 2 2 3 0 3 3 2 0 3 3 2 3 2 3 0 3 2 3 0 2 3 0 3 3 2 3 0 2 3 
SCALARS geom_link_id int 1
LOOKUP_TABLE default
18 20 24 21 17 19 23 22 32 33 24 34 31 29 12 17 25 28 30 13 0 18 10 35 36 11 23 13 0 12 34 32 17 33 10 24 31 17 0 18 12 29 0 17 11 28 12 25 13 -1 11 36 13 -1 30 18 -1 18 10 35 10 -1 23 11 


CELL_DATA 27
SCALARS GMDS_ID int 1
LOOKUP_TABLE default
0 2 3 6 7 10 11 12 13 14 15 16 17 18 19 24 25 26 27 28 29 30 31 32 33 34 35 

SCALARS is_in int 1
LOOKUP_TABLE default
1 1 1 1 1 1 1 1 1 1 1 1 1 1 1 1 1 1 1 1 1 1 1 1 1 1 1 

SCALARS geom_link_dim int 1
LOOKUP_TABLE default
0 0 0 0 0 0 0 0 0 0 0 0 0 0 0 0 0 0 0 0 0 0 0 0 0 0 0 

SCALARS geom_link_id int 1
LOOKUP_TABLE default
0 0 0 -1 -1 0 0 -1 -1 -1 -1 0 0 0 0 -1 -1 -1 -1 -1 -1 -1 -1 -1 -1 -1 -1 

