# vtk DataFile Version 3.0
Generated by GMDS VTK Writer

ASCII
DATASET UNSTRUCTURED_GRID
POINTS 216 float
-5 -5 -5
-5 5 -5
5 5 -5
5 -5 -5
-5 -5 5
-5 5 5
5 5 5
5 -5 5
-5 -1 -5
-5 -1 5
5 -1 5
5 -1 -5
-5 -5 -1
5 -5 -1
5 -1 -1
-5 -1 -1
5 5 -1
-5 5 -1
-1 -5 -5
-1 -1 -5
-1 -1 -1
-1 -5 -1
-1 -1 5
-1 -5 5
-1 5 -5
-1 5 -1
-1 5 5
-5 -5 1
-5 -1 1
-1 -1 1
-1 -5 1
5 -1 1
5 -5 1
-5 5 1
-1 5 1
5 5 1
5 0.999999999999999 1
-1 1 1
-1 1 -1
5 0.999999999999999 -1
-1 0.999999999999999 -5
5 0.999999999999999 -5
5 0.999999999999999 5
-1 0.999999999999999 5
-5 1 -5
-5 1 -1
-5 0.999999999999999 1
-5 0.999999999999999 5
1 -1 1
1 -5 1
1 -5 -1
1 -1 -1
1 -1 5
1 -5 5
1 0.999999999999999 -5
1 1 -1
1 5 -1
1 5 -5
1 -1 -5
0.999999999999999 -5 -5
1 1 1
1 5 1
1 0.999999999999999 5
1 5 5
-5 3 -5
-5 3 -1
-1 3 -1
-1 3 -5
-5 3 5
-1 3 5
-1 3 1
-5 3 1
1 3 -1
1 3 -5
5 3 -1
5 3 -5
1 3 1
5 3 1
1 3 5
5 3 5
3 -1 -5
3 -1 -1
3 1 -1
3 0.999999999999999 -5
3 -5 -5
3 -5 -1
3 -5 5
3 -1 5
3 -1 1
3 -5 1
3 0.999999999999999 1
3 0.999999999999999 5
3 5 -5
3 5 -1
3 3 -1
3 3 -5
3 5 1
3 3 1
3 5 5
3 3 5
-5 -5 3
-5 -1 3
-1 -1 3
-1 -5 3
-5 3 3
-1 3 3
-1 0.999999999999999 3
-5 0.999999999999999 3
3 -1 3
3 -5 3
1 -5 3
1 -1 3
-5 5 3
-1 5 3
5 -1 3
5 -5 3
1 0.999999999999999 3
1 5 3
1 3 3
5 0.999999999999999 3
3 0.999999999999999 3
5 5 3
5 3 3
3 3 3
3 5 3
3 -1 4
3 -5 4
1 -5 4
1 -1 4
-5 3 4
-1 3 4
-1 0.999999999999999 4
-5 0.999999999999999 4
-5 -5 4
-5 -1 4
-1 -1 4
-1 -5 4
-5 5 4
-1 5 4
5 -1 4
5 -5 4
1 0.999999999999999 4
1 5 4
1 3 4
5 0.999999999999999 4
3 0.999999999999999 4
5 5 4
5 3 4
3 3 4
3 5 4
-5 4 4
-1 4 4
-1 4 5
-5 4 5
-5 4 3
-1 4 3
-5 4 -5
-5 4 -1
-1 4 -1
-1 4 -5
-5 4 1
-1 4 1
1 4 -1
1 4 -5
1 4 1
5 4 -5
5 4 -1
3 4 -1
3 4 -5
5 4 1
3 4 1
1 4 3
3 4 3
5 4 3
1 4 4
1 4 5
3 4 4
5 4 4
3 4 5
5 4 5
4 -1 -5
4 -1 -1
4 1 -1
4 0.999999999999999 -5
4 -5 -5
4 -5 -1
4 -1 3
4 -5 3
4 -5 4
4 -1 4
4 -1 1
4 0.999999999999999 1
4 -5 1
4 3 -5
4 3 -1
4 3 1
4 0.999999999999999 3
4 3 3
4 -5 5
4 -1 5
4 0.999999999999999 4
4 0.999999999999999 5
4 3 4
4 3 5
4 5 -5
4 5 -1
4 4 -1
4 4 -5
4 5 1
4 4 1
4 5 3
4 4 3
4 5 4
4 4 4
4 5 5
4 4 5

CELLS 122 1098
8 0 8 15 12 18 19 20 21 
8 67 66 72 73 40 38 55 54 
8 27 28 29 30 12 15 20 21 
8 135 131 141 128 22 43 62 52 
8 31 32 115 114 190 192 187 186 
8 71 70 66 65 46 37 38 45 
8 134 135 131 132 9 22 43 47 
8 102 106 116 111 135 131 141 128 
8 101 102 106 107 134 135 131 132 
8 29 30 21 20 48 49 50 51 
8 25 34 61 56 158 161 164 162 
8 159 158 162 163 67 66 72 73 
8 64 65 66 67 44 45 38 40 
8 190 191 196 186 88 90 120 108 
8 8 15 20 19 44 45 38 40 
8 28 29 20 15 46 37 38 45 
8 135 136 127 128 22 23 53 52 
8 81 88 90 82 51 48 60 55 
8 19 20 38 40 58 51 55 54 
8 24 25 56 57 159 158 162 163 
8 18 19 20 21 59 58 51 50 
8 84 80 81 85 59 58 51 50 
8 29 30 49 48 102 103 110 111 
8 102 103 110 111 135 136 127 128 
8 31 36 119 114 190 191 196 186 
8 80 81 82 83 58 51 55 54 
8 88 89 49 48 108 109 110 111 
8 194 195 191 182 94 97 90 82 
8 66 70 76 72 38 37 60 55 
8 71 70 37 46 104 105 106 107 
8 191 195 197 196 90 97 123 120 
8 36 77 122 119 191 195 197 196 
8 158 161 164 162 66 70 76 72 
8 27 28 29 30 100 101 102 103 
8 89 88 81 85 49 48 51 50 
8 133 134 135 136 4 9 22 23 
8 100 101 102 103 133 134 135 136 
8 74 77 36 39 194 195 191 182 
8 193 194 182 183 95 94 82 83 
8 95 94 82 83 73 72 55 54 
8 75 74 39 41 193 194 182 183 
8 192 190 181 185 89 88 81 85 
8 94 97 90 82 72 76 60 55 
8 129 130 131 132 68 69 43 47 
8 104 105 106 107 129 130 131 132 
8 125 126 127 128 87 86 53 52 
8 108 109 110 111 125 126 127 128 
8 28 29 37 46 101 102 106 107 
8 160 161 158 157 71 70 66 65 
8 29 37 60 48 102 106 116 111 
8 33 34 25 17 160 161 158 157 
8 32 31 14 13 192 190 181 185 
8 160 161 155 154 71 70 105 104 
8 70 76 60 37 105 118 116 106 
8 33 34 113 112 160 161 155 154 
8 156 157 158 159 64 65 66 67 
8 88 90 60 48 108 120 116 111 
8 1 17 25 24 156 157 158 159 
8 181 190 191 182 81 88 90 82 
8 154 155 151 150 104 105 130 129 
8 14 31 36 39 181 190 191 182 
8 112 113 138 137 154 155 151 150 
8 150 151 152 153 129 130 69 68 
8 90 97 76 60 120 123 118 116 
8 137 138 26 5 150 151 152 153 
8 186 187 188 189 108 109 126 125 
8 114 115 140 139 186 187 188 189 
8 105 118 116 106 130 143 141 131 
8 130 143 141 131 69 78 62 43 
8 108 120 116 111 125 145 141 128 
8 125 145 141 128 87 91 62 52 
8 184 180 181 185 84 80 81 85 
8 3 11 14 13 184 180 181 185 
8 180 181 182 183 80 81 82 83 
8 11 14 39 41 180 181 182 183 
8 120 123 118 116 145 148 143 141 
8 145 148 143 141 91 99 78 62 
8 92 93 56 57 168 167 162 163 
8 168 167 162 163 95 94 72 73 
8 93 96 61 56 167 170 164 162 
8 167 170 164 162 94 97 76 72 
8 34 61 117 113 161 164 171 155 
8 161 164 171 155 70 76 118 105 
8 61 96 124 117 164 170 172 171 
8 164 170 172 171 76 97 123 118 
8 113 117 142 138 155 171 174 151 
8 155 171 174 151 105 118 143 130 
8 138 142 63 26 151 174 175 152 
8 151 174 175 152 130 143 78 69 
8 117 124 149 142 171 172 176 174 
8 171 172 176 174 118 123 148 143 
8 142 149 98 63 174 176 178 175 
8 174 176 178 175 143 148 99 78 
8 139 140 7 10 189 188 198 199 
8 189 188 198 199 125 126 86 87 
8 114 119 144 139 186 196 200 189 
8 186 196 200 189 108 120 145 125 
8 139 144 42 10 189 200 201 199 
8 189 200 201 199 125 145 91 87 
8 119 122 147 144 196 197 202 200 
8 196 197 202 200 120 123 148 145 
8 144 147 79 42 200 202 203 201 
8 200 202 203 201 145 148 99 91 
8 2 16 166 165 204 205 206 207 
8 204 205 206 207 92 93 167 168 
8 165 166 74 75 207 206 194 193 
8 207 206 194 193 168 167 94 95 
8 16 35 169 166 205 208 209 206 
8 205 208 209 206 93 96 170 167 
8 166 169 77 74 206 209 195 194 
8 206 209 195 194 167 170 97 94 
8 35 121 173 169 208 210 211 209 
8 208 210 211 209 96 124 172 170 
8 169 173 122 77 209 211 197 195 
8 209 211 197 195 170 172 123 97 
8 121 146 177 173 210 212 213 211 
8 210 212 213 211 124 149 176 172 
8 173 177 147 122 211 213 202 197 
8 6 146 177 179 214 212 213 215 
8 214 212 213 215 98 149 176 178 
8 179 177 147 79 215 213 202 203 
8 215 213 202 203 178 176 148 99 

CELL_TYPES 122
12 
12 
12 
12 
12 
12 
12 
12 
12 
12 
12 
12 
12 
12 
12 
12 
12 
12 
12 
12 
12 
12 
12 
12 
12 
12 
12 
12 
12 
12 
12 
12 
12 
12 
12 
12 
12 
12 
12 
12 
12 
12 
12 
12 
12 
12 
12 
12 
12 
12 
12 
12 
12 
12 
12 
12 
12 
12 
12 
12 
12 
12 
12 
12 
12 
12 
12 
12 
12 
12 
12 
12 
12 
12 
12 
12 
12 
12 
12 
12 
12 
12 
12 
12 
12 
12 
12 
12 
12 
12 
12 
12 
12 
12 
12 
12 
12 
12 
12 
12 
12 
12 
12 
12 
12 
12 
12 
12 
12 
12 
12 
12 
12 
12 
12 
12 
12 
12 
12 
12 
12 
12 
POINT_DATA 216
SCALARS GMDS_ID int 1
LOOKUP_TABLE default
0 1 2 3 4 5 6 7 8 9 10 11 12 13 14 15 16 17 18 19 20 21 22 23 24 25 26 27 28 29 30 31 32 33 34 35 36 37 38 39 40 41 42 43 44 45 46 47 48 49 50 51 52 53 54 55 56 57 58 59 60 61 62 63 64 65 66 67 68 69 70 71 72 73 74 75 76 77 78 79 80 81 82 83 84 85 86 87 88 89 90 91 92 93 94 95 96 97 98 99 100 101 102 103 104 105 106 107 108 109 110 111 112 113 114 115 116 117 118 119 120 121 122 123 124 125 126 127 128 129 130 131 132 133 134 135 136 137 138 139 140 141 142 143 144 145 146 147 148 149 150 151 152 153 154 155 156 157 158 159 160 161 162 163 164 165 166 167 168 169 170 171 172 173 174 175 176 177 178 179 180 181 182 183 184 185 186 187 188 189 190 191 192 193 194 195 196 197 198 199 200 201 202 203 204 205 206 207 208 209 210 211 212 213 214 215 
SCALARS geom_link_dim_0 int 1
LOOKUP_TABLE default
0 0 0 0 0 0 0 0 0 0 0 0 0 0 0 0 0 0 0 0 0 0 0 0 0 0 0 0 0 0 0 0 0 0 0 0 0 0 0 0 0 0 0 0 0 0 0 0 0 0 0 0 0 0 0 0 0 0 0 0 0 0 0 0 0 0 0 0 0 0 0 0 0 0 0 0 0 0 0 0 0 0 0 0 0 0 0 0 0 0 0 0 0 0 0 0 0 0 0 0 0 0 0 0 0 0 0 0 0 0 0 0 0 0 0 0 0 0 0 0 0 0 0 0 0 0 0 0 0 0 0 0 0 0 0 0 0 0 0 0 0 0 0 0 0 0 0 0 0 0 0 0 0 0 0 0 0 0 0 0 0 0 0 0 0 0 0 0 0 0 0 0 0 0 0 0 0 0 0 0 0 0 0 0 0 0 0 0 0 0 0 0 0 0 0 0 0 0 0 0 0 0 0 0 0 0 0 0 0 0 0 0 0 0 0 0 
SCALARS geom_link_id_0 int 1
LOOKUP_TABLE default
0 0 0 0 0 0 0 0 0 0 0 0 0 0 0 0 0 0 0 0 0 0 0 0 0 0 0 0 0 0 0 0 0 0 0 0 0 0 0 0 0 0 0 0 0 0 0 0 0 0 0 0 0 0 0 0 0 0 0 0 0 0 0 0 0 0 0 0 0 0 0 0 0 0 0 0 0 0 0 0 0 0 0 0 0 0 0 0 0 0 0 0 0 0 0 0 0 0 0 0 0 0 0 0 0 0 0 0 0 0 0 0 0 0 0 0 0 0 0 0 0 0 0 0 0 0 0 0 0 0 0 0 0 0 0 0 0 0 0 0 0 0 0 0 0 0 0 0 0 0 0 0 0 0 0 0 0 0 0 0 0 0 0 0 0 0 0 0 0 0 0 0 0 0 0 0 0 0 0 0 0 0 0 0 0 0 0 0 0 0 0 0 0 0 0 0 0 0 0 0 0 0 0 0 0 0 0 0 0 0 0 0 0 0 0 0 


CELL_DATA 122
SCALARS GMDS_ID int 1
LOOKUP_TABLE default
2 3 4 5 6 7 9 10 11 12 13 14 16 17 18 20 22 23 24 25 26 28 31 32 33 34 36 37 38 40 41 42 43 44 45 46 47 48 49 51 52 53 55 56 57 58 59 60 61 62 63 64 65 66 67 69 70 71 72 73 74 75 77 78 79 80 81 82 83 86 87 88 89 90 91 94 95 96 97 100 101 102 103 106 107 108 109 110 111 116 117 118 119 120 121 122 123 124 125 126 127 128 129 130 131 132 133 134 135 136 137 138 139 140 141 142 143 144 146 147 148 149 

SCALARS geom_link_dim_0 int 1
LOOKUP_TABLE default
0 0 0 0 0 0 0 0 0 0 0 0 0 0 0 0 0 0 0 0 0 0 0 0 0 0 0 0 0 0 0 0 0 0 0 0 0 0 0 0 0 0 0 0 0 0 0 0 0 0 0 0 0 0 0 0 0 0 0 0 0 0 0 0 0 0 0 0 0 0 0 0 0 0 0 0 0 0 0 0 0 0 0 0 0 0 0 0 0 0 0 0 0 0 0 0 0 0 0 0 0 0 0 0 0 0 0 0 0 0 0 0 0 0 0 0 0 0 0 0 0 0 

SCALARS geom_link_id_0 int 1
LOOKUP_TABLE default
0 0 0 0 0 0 0 0 0 0 0 0 0 0 0 0 0 0 0 0 0 0 0 0 0 0 0 0 0 0 0 0 0 0 0 0 0 0 0 0 0 0 0 0 0 0 0 0 0 0 0 0 0 0 0 0 0 0 0 0 0 0 0 0 0 0 0 0 0 0 0 0 0 0 0 0 0 0 0 0 0 0 0 0 0 0 0 0 0 0 0 0 0 0 0 0 0 0 0 0 0 0 0 0 0 0 0 0 0 0 0 0 0 0 0 0 0 0 0 0 0 0 

