# vtk DataFile Version 3.0
Generated by GMDS VTK Writer

ASCII
DATASET UNSTRUCTURED_GRID
POINTS 100 float
-5 -5 -5
-5 5 -5
5 5 -5
5 -5 -5
-5 -5 5
-5 5 5
5 5 5
5 -5 5
4 -5 -5
4 5 -5
4 5 5
4 -5 5
-5 1 -5
-5 1 5
4 1 5
4 1 -5
5 1 5
5 1 -5
-5 -5 -1
4 -5 -1
4 1 -1
-5 1 -1
4 5 -1
-5 5 -1
5 -5 -1
5 1 -1
5 5 -1
-5 3 -1
4 3 -1
4 3 5
-5 3 5
-5 3 -5
4 3 -5
5 3 -5
5 3 -1
5 3 5
-1 -5 -5
-1 1 -5
-1 1 -1
-1 -5 -1
-1 3 5
-1 3 -1
-1 5 -1
-1 5 5
-1 1 5
-1 -5 5
-1 3 -5
-1 5 -5
5 -5 3
4 -5 3
4 1 3
5 1 3
5 3 3
4 3 3
5 5 3
4 5 3
-5 5 3
-5 3 3
-1 3 3
-1 5 3
-5 1 3
-1 1 3
-5 -5 3
-1 -5 3
4 1 1
5 1 1
5 3 1
4 3 1
5 -5 0.999999999999999
4 -5 1
5 5 0.999999999999999
4 5 1
-5 5 1
-5 3 1
-1 3 1
-1 5 1
-5 1 1
-1 1 1
-5 -5 0.999999999999999
-1 -5 0.999999999999999
-1 -1 -5
-1 -1 -1
4 -1 -1
4 -1 -5
-5 -0.999999999999999 -5
-5 -1 -1
5 -1 -5
5 -1 -1
5 -1 5
4 -1 5
4 -1 3
5 -1 3
5 -1 1
4 -1 1
-5 -1 5
-1 -1 5
-1 -1 3
-5 -1 3
-1 -1 1
-5 -1 1

CELLS 48 432
8 14 16 35 29 50 51 52 53 
8 7 11 49 48 88 89 90 91 
8 88 89 90 91 16 14 50 51 
8 29 35 6 10 53 52 54 55 
8 68 69 19 24 92 93 82 87 
8 67 66 70 71 28 34 26 22 
8 53 52 54 55 67 66 70 71 
8 59 58 53 55 75 74 67 71 
8 15 17 25 20 32 33 34 28 
8 32 33 34 28 9 2 26 22 
8 72 73 74 75 23 27 41 42 
8 56 57 58 59 72 73 74 75 
8 64 65 66 67 20 25 34 28 
8 50 51 52 53 64 65 66 67 
8 12 21 27 31 37 38 41 46 
8 37 38 41 46 15 20 28 32 
8 31 27 23 1 46 41 42 47 
8 46 41 42 47 32 28 22 9 
8 5 30 40 43 56 57 58 59 
8 86 83 82 87 17 15 20 25 
8 43 40 29 10 59 58 53 55 
8 3 8 19 24 86 83 82 87 
8 13 30 40 44 60 57 58 61 
8 84 85 81 80 12 21 38 37 
8 44 40 29 14 61 58 53 50 
8 0 18 39 36 84 85 81 80 
8 80 81 82 83 37 38 20 15 
8 36 39 19 8 80 81 82 83 
8 75 74 67 71 42 41 28 22 
8 60 57 58 61 76 73 74 77 
8 76 73 74 77 21 27 41 38 
8 61 58 53 50 77 74 67 64 
8 77 74 67 64 38 41 28 20 
8 92 93 82 87 65 64 20 25 
8 48 49 69 68 91 90 93 92 
8 91 90 93 92 51 50 64 65 
8 4 45 63 62 94 95 96 97 
8 94 95 96 97 13 44 61 60 
8 11 45 63 49 89 95 96 90 
8 89 95 96 90 14 44 61 50 
8 62 63 79 78 97 96 98 99 
8 97 96 98 99 60 61 77 76 
8 78 79 39 18 99 98 81 85 
8 99 98 81 85 76 77 38 21 
8 49 63 79 69 90 96 98 93 
8 90 96 98 93 50 61 77 64 
8 69 79 39 19 93 98 81 82 
8 93 98 81 82 64 77 38 20 

CELL_TYPES 48
12 
12 
12 
12 
12 
12 
12 
12 
12 
12 
12 
12 
12 
12 
12 
12 
12 
12 
12 
12 
12 
12 
12 
12 
12 
12 
12 
12 
12 
12 
12 
12 
12 
12 
12 
12 
12 
12 
12 
12 
12 
12 
12 
12 
12 
12 
12 
12 
POINT_DATA 100
SCALARS GMDS_ID int 1
LOOKUP_TABLE default
0 1 2 3 4 5 6 7 8 9 10 11 12 13 14 15 16 17 18 19 20 21 22 23 24 25 26 27 28 29 30 31 32 33 34 35 36 37 38 39 40 41 42 43 44 45 46 47 48 49 50 51 52 53 54 55 56 57 58 59 60 61 62 63 64 65 66 67 68 69 70 71 72 73 74 75 76 77 78 79 80 81 82 83 84 85 86 87 88 89 90 91 92 93 94 95 96 97 98 99 
SCALARS geom_link_dim_0 int 1
LOOKUP_TABLE default
0 0 0 0 0 0 0 0 0 0 0 0 0 0 0 0 0 0 0 0 0 0 0 0 0 0 0 0 0 0 0 0 0 0 0 0 0 0 0 0 0 0 0 0 0 0 0 0 0 0 0 0 0 0 0 0 0 0 0 0 0 0 0 0 0 0 0 0 0 0 0 0 0 0 0 0 0 0 0 0 0 0 0 0 0 0 0 0 0 0 0 0 0 0 0 0 0 0 0 0 
SCALARS geom_link_id_0 int 1
LOOKUP_TABLE default
0 0 0 0 0 0 0 0 0 0 0 0 0 0 0 0 0 0 0 0 0 0 0 0 0 0 0 0 0 0 0 0 0 0 0 0 0 0 0 0 0 0 0 0 0 0 0 0 0 0 0 0 0 0 0 0 0 0 0 0 0 0 0 0 0 0 0 0 0 0 0 0 0 0 0 0 0 0 0 0 0 0 0 0 0 0 0 0 0 0 0 0 0 0 0 0 0 0 0 0 


CELL_DATA 48
SCALARS GMDS_ID int 1
LOOKUP_TABLE default
1 2 3 4 5 6 7 9 12 13 14 15 18 19 20 21 22 23 24 25 26 27 28 29 30 31 33 35 36 37 38 39 40 45 46 47 48 49 50 51 52 53 54 55 56 57 58 59 

SCALARS geom_link_dim_0 int 1
LOOKUP_TABLE default
0 0 0 0 0 0 0 0 0 0 0 0 0 0 0 0 0 0 0 0 0 0 0 0 0 0 0 0 0 0 0 0 0 0 0 0 0 0 0 0 0 0 0 0 0 0 0 0 

SCALARS geom_link_id_0 int 1
LOOKUP_TABLE default
0 0 0 0 0 0 0 0 0 0 0 0 0 0 0 0 0 0 0 0 0 0 0 0 0 0 0 0 0 0 0 0 0 0 0 0 0 0 0 0 0 0 0 0 0 0 0 0 

