# vtk DataFile Version 3.0
Generated by GMDS VTK Writer

ASCII
DATASET UNSTRUCTURED_GRID
POINTS 216 float
-5 -5 -5
-5 5 -5
5 5 -5
5 -5 -5
-5 -5 5
-5 5 5
5 5 5
5 -5 5
-5 1 -5
-5 1 5
5 1 5
5 1 -5
-5 -5 1
5 -5 1
5 1 1
-5 1 1
5 5 1
-5 5 1
-1 -5 -5
-1 1 -5
-1 1 1
-1 -5 1
-1 1 5
-1 -5 5
-1 5 -5
-1 5 1
-1 5 5
-1 4 -5
-1 4 1
5 4 1
5 4 -5
-5 4 -5
-5 4 1
-5 4 5
-1 4 5
5 4 5
-5 -5 4
-5 1 4
-1 1 4
-1 -5 4
5 1 4
5 -5 4
-1 4 4
-5 4 4
-1 5 4
-5 5 4
5 4 4
5 5 4
4 4 -5
4 4 1
4 5 1
4 5 -5
4 1 -5
4 1 1
4 -5 -5
4 -5 1
4 1 4
4 -5 4
4 1 5
4 -5 5
4 4 5
4 4 4
4 5 5
4 5 4
-1 -5 -1
-1 1 -1
4 1 -1
4 -5 -1
-5 -5 -1
-5 1 -1
4 4 -1
5 4 -1
5 1 -1
-1 4 -1
-5 4 -1
-1 5 -1
-5 5 -0.999999999999999
4 5 -1
5 5 -1
5 -5 -1
1 1 4
1 -5 4
1 -5 1
1 1 1
1 1 5
1 -5 5
1 4 5
1 4 4
1 4 1
1 5 5
1 5 4
1 5 1
1 -5 -1
1 1 -1
0.999999999999999 -5 -5
1 1 -5
1 4 -5
1 4 -1
1 5 -5
1 5 -1
-5 -1 -1
-1 -1 -1
-1 -1 1
-5 -1 1
-5 -0.999999999999999 -5
-1 -1 -5
1 -1 5
1 -1 4
4 -1 4
4 -1 5
-1 -1 5
-1 -1 4
-5 -1 4
-5 -1 5
1 -1 1
4 -1 1
5 -1 4
5 -1 1
5 -1 5
5 -1 -5
4 -1 -5
4 -1 -1
5 -1 -1
1 -1 -1
1 -1 -5
5 3 -1
4 3 -1
4 3 1
5 3 1
5 3 -5
4 3 -5
1 3 5
1 3 4
4 3 4
4 3 5
-1 3 5
-1 3 4
-5 3 -1
-1 3 -1
-1 3 1
-5 3 1
-5 3 -5
-1 3 -5
-5 3 4
-5 3 5
1 3 1
5 3 4
5 3 5
1 3 -1
1 3 -5
3 3 4
3 3 5
3 4 5
3 4 4
3 1 4
3 1 5
3 -1 4
3 -1 5
3 -5 4
3 -5 5
3 3 -5
3 3 -1
3 4 -1
3 4 -5
3 1 -5
3 1 -1
3 5 5
3 5 4
3 4 1
3 5 1
3 5 -5
3 5 -1
3 3 1
3 1 1
3 -5 1
3 -1 1
3 -5 -5
3 -5 -1
3 -1 -1
3 -1 -5
-5 3 3
-1 3 3
-1 4 3
-5 4 3
-5 1 3
-1 1 3
-1 5 3
-5 5 3
4 5 3
4 4 3
5 4 3
5 5 3
-5 -1 3
-1 -1 3
-5 -5 3
-1 -5 3
1 4 3
1 5 3
5 3 3
4 3 3
5 1 3
4 1 3
1 -5 3
1 -1 3
1 1 3
5 -5 3
4 -5 3
4 -1 3
5 -1 3
1 3 3
3 5 3
3 4 3
3 3 3
3 1 3
3 -1 3
3 -5 3

CELLS 125 1125
8 104 105 101 100 8 19 65 69 
8 158 159 157 156 81 85 106 107 
8 62 60 61 63 166 152 153 167 
8 52 66 126 130 164 165 161 160 
8 0 18 64 68 104 105 101 100 
8 69 65 20 15 137 138 139 140 
8 26 34 42 44 89 86 87 90 
8 141 142 138 137 31 27 73 74 
8 8 19 65 69 141 142 138 137 
8 57 59 109 108 158 159 157 156 
8 166 152 153 167 89 86 87 90 
8 137 138 139 140 74 73 28 32 
8 130 126 70 48 160 161 162 163 
8 160 161 162 163 149 148 97 96 
8 33 34 26 5 43 42 44 45 
8 144 135 136 143 33 34 42 43 
8 9 22 38 37 144 135 136 143 
8 200 201 199 198 40 56 133 146 
8 14 53 127 128 200 201 199 198 
8 113 110 111 112 9 22 38 37 
8 135 136 132 131 34 42 87 86 
8 4 23 39 36 113 110 111 112 
8 22 38 80 84 135 136 132 131 
8 108 109 58 56 156 157 155 154 
8 156 157 155 154 107 106 84 80 
8 110 111 107 106 22 38 80 84 
8 62 60 61 63 6 35 46 47 
8 23 39 81 85 110 111 107 106 
8 164 165 161 160 95 93 148 149 
8 31 27 24 1 74 73 75 76 
8 74 73 75 76 32 28 25 17 
8 51 48 30 2 77 70 71 78 
8 77 70 71 78 50 49 29 16 
8 100 101 102 103 69 65 20 15 
8 68 64 21 12 100 101 102 103 
8 195 202 203 193 39 81 107 111 
8 21 82 114 102 195 202 203 193 
8 186 182 196 197 44 42 87 90 
8 25 28 88 91 186 182 196 197 
8 129 130 126 125 30 48 70 71 
8 11 52 66 72 129 130 126 125 
8 125 126 127 128 71 70 49 29 
8 72 66 53 14 125 126 127 128 
8 150 151 152 153 132 131 86 87 
8 133 134 60 61 150 151 152 153 
8 154 155 151 150 80 84 131 132 
8 56 58 134 133 154 155 151 150 
8 24 27 73 75 98 96 97 99 
8 194 195 193 192 36 39 111 112 
8 75 73 28 25 99 97 88 91 
8 12 21 102 103 194 195 193 192 
8 188 189 190 191 63 61 46 47 
8 50 49 29 16 188 189 190 191 
8 59 57 41 7 109 108 116 118 
8 109 108 116 118 58 56 40 10 
8 3 54 67 79 119 120 121 122 
8 119 120 121 122 11 52 66 72 
8 79 67 55 13 122 121 115 117 
8 122 121 115 117 72 66 53 14 
8 21 64 92 82 102 101 123 114 
8 102 101 123 114 20 65 93 83 
8 184 185 181 180 37 38 136 143 
8 15 20 139 140 184 185 181 180 
8 18 64 92 94 105 101 123 124 
8 105 101 123 124 19 65 93 95 
8 183 182 186 187 43 42 44 45 
8 32 28 25 17 183 182 186 187 
8 180 181 182 183 143 136 42 43 
8 140 139 28 32 180 181 182 183 
8 58 56 40 10 134 133 146 147 
8 134 133 146 147 60 61 46 35 
8 20 65 93 83 139 138 148 145 
8 139 138 148 145 28 73 97 88 
8 103 102 20 15 192 193 185 184 
8 192 193 185 184 112 111 38 37 
8 19 65 93 95 142 138 148 149 
8 142 138 148 149 27 73 97 96 
8 128 127 49 29 198 199 189 190 
8 198 199 189 190 146 133 61 46 
8 48 51 77 70 163 170 171 162 
8 163 170 171 162 96 98 99 97 
8 70 77 50 49 162 171 169 168 
8 162 171 169 168 97 99 91 88 
8 127 126 70 49 172 161 162 168 
8 172 161 162 168 145 148 97 88 
8 53 66 126 127 173 165 161 172 
8 173 165 161 172 83 93 148 145 
8 54 67 121 120 176 177 178 179 
8 176 177 178 179 94 92 123 124 
8 120 121 66 52 179 178 165 164 
8 179 178 165 164 124 123 93 95 
8 55 67 121 115 174 177 178 175 
8 174 177 178 175 82 92 123 114 
8 115 121 66 53 175 178 165 173 
8 175 178 165 173 114 123 93 83 
8 102 114 83 20 193 203 204 185 
8 193 203 204 185 111 107 80 38 
8 13 55 115 117 205 206 207 208 
8 205 206 207 208 41 57 108 116 
8 117 115 53 14 208 207 201 200 
8 208 207 201 200 116 108 56 40 
8 20 83 145 139 185 204 209 181 
8 185 204 209 181 38 80 132 136 
8 139 145 88 28 181 209 196 182 
8 181 209 196 182 136 132 87 42 
8 49 50 169 168 189 188 210 211 
8 189 188 210 211 61 63 167 153 
8 168 169 91 88 211 210 197 196 
8 211 210 197 196 153 167 90 87 
8 49 127 172 168 189 199 212 211 
8 189 199 212 211 61 133 150 153 
8 168 172 145 88 211 212 209 196 
8 211 212 209 196 153 150 132 87 
8 53 127 172 173 201 199 212 213 
8 201 199 212 213 56 133 150 154 
8 173 172 145 83 213 212 209 204 
8 213 212 209 204 154 150 132 80 
8 55 115 175 174 206 207 214 215 
8 206 207 214 215 57 108 156 158 
8 174 175 114 82 215 214 203 202 
8 215 214 203 202 158 156 107 81 
8 53 115 175 173 201 207 214 213 
8 201 207 214 213 56 108 156 154 
8 173 175 114 83 213 214 203 204 
8 213 214 203 204 154 156 107 80 

CELL_TYPES 125
12 
12 
12 
12 
12 
12 
12 
12 
12 
12 
12 
12 
12 
12 
12 
12 
12 
12 
12 
12 
12 
12 
12 
12 
12 
12 
12 
12 
12 
12 
12 
12 
12 
12 
12 
12 
12 
12 
12 
12 
12 
12 
12 
12 
12 
12 
12 
12 
12 
12 
12 
12 
12 
12 
12 
12 
12 
12 
12 
12 
12 
12 
12 
12 
12 
12 
12 
12 
12 
12 
12 
12 
12 
12 
12 
12 
12 
12 
12 
12 
12 
12 
12 
12 
12 
12 
12 
12 
12 
12 
12 
12 
12 
12 
12 
12 
12 
12 
12 
12 
12 
12 
12 
12 
12 
12 
12 
12 
12 
12 
12 
12 
12 
12 
12 
12 
12 
12 
12 
12 
12 
12 
12 
12 
12 
POINT_DATA 216
SCALARS GMDS_ID int 1
LOOKUP_TABLE default
0 1 2 3 4 5 6 7 8 9 10 11 12 13 14 15 16 17 18 19 20 21 22 23 24 25 26 27 28 29 30 31 32 33 34 35 36 37 38 39 40 41 42 43 44 45 46 47 48 49 50 51 52 53 54 55 56 57 58 59 60 61 62 63 64 65 66 67 68 69 70 71 72 73 74 75 76 77 78 79 80 81 82 83 84 85 86 87 88 89 90 91 92 93 94 95 96 97 98 99 100 101 102 103 104 105 106 107 108 109 110 111 112 113 114 115 116 117 118 119 120 121 122 123 124 125 126 127 128 129 130 131 132 133 134 135 136 137 138 139 140 141 142 143 144 145 146 147 148 149 150 151 152 153 154 155 156 157 158 159 160 161 162 163 164 165 166 167 168 169 170 171 172 173 174 175 176 177 178 179 180 181 182 183 184 185 186 187 188 189 190 191 192 193 194 195 196 197 198 199 200 201 202 203 204 205 206 207 208 209 210 211 212 213 214 215 
SCALARS geom_link_dim int 1
LOOKUP_TABLE default
1 1 1 1 1 1 1 1 2 2 2 2 2 2 3 3 2 2 2 3 0 3 3 2 2 3 2 3 0 3 2 2 3 2 3 2 2 3 0 3 3 2 0 3 3 2 3 2 3 0 3 2 3 0 2 3 0 3 3 2 3 0 2 3 3 0 0 3 2 3 0 3 3 0 3 3 2 3 2 2 0 3 3 0 3 2 3 0 0 2 3 3 3 0 2 3 3 0 2 3 3 0 0 3 2 3 3 0 0 3 3 0 3 2 0 0 3 3 2 2 3 0 3 0 3 3 0 0 3 2 3 3 0 0 3 3 0 3 0 0 3 2 3 3 2 0 3 2 0 3 0 3 3 0 0 3 0 3 3 2 3 0 0 3 3 0 2 3 0 3 2 3 0 0 3 0 2 3 0 3 3 0 0 3 3 0 3 2 3 0 3 2 3 0 2 3 0 3 3 0 3 0 3 0 0 2 3 0 3 0 3 0 0 0 0 3 
SCALARS geom_link_id int 1
LOOKUP_TABLE default
18 20 24 21 17 19 23 22 32 33 24 34 31 29 12 17 25 28 30 13 0 18 10 35 36 11 23 13 0 12 34 32 17 33 10 24 31 17 0 18 12 29 0 17 11 28 12 25 13 0 11 36 13 0 30 18 0 18 10 35 10 0 23 11 18 0 0 18 31 17 0 12 12 0 17 11 28 11 25 29 0 18 18 0 10 35 10 0 0 23 11 11 18 0 30 13 13 0 36 11 17 0 0 17 32 13 10 0 0 10 10 0 17 33 0 0 12 12 24 34 13 0 12 0 13 12 0 0 12 34 13 10 0 0 10 10 0 17 0 0 17 32 13 17 33 0 12 24 0 13 0 10 10 0 0 10 0 10 18 35 13 0 0 13 13 0 23 11 0 11 36 11 0 0 18 0 30 18 0 13 17 -1 -1 17 17 -1 11 28 11 -1 12 25 17 -1 31 18 -1 11 12 -1 12 -1 18 -1 -1 29 18 -1 12 -1 11 -1 -1 -1 -1 18 


CELL_DATA 125
SCALARS GMDS_ID int 1
LOOKUP_TABLE default
1 2 3 4 5 6 7 10 11 12 13 15 16 17 18 20 21 22 23 24 25 26 27 29 31 32 33 34 36 37 38 39 40 41 42 43 44 45 47 48 49 50 51 52 53 54 55 56 57 58 59 60 61 66 67 68 69 70 71 72 73 74 75 76 77 78 79 80 81 86 87 88 89 90 91 92 93 94 95 96 97 98 99 100 101 102 103 108 109 110 111 112 113 114 115 120 121 122 123 124 125 126 127 128 129 130 131 132 133 134 135 136 137 138 139 140 141 142 143 144 145 146 147 148 149 

SCALARS is_in int 1
LOOKUP_TABLE default
1 1 1 1 1 1 1 1 1 1 1 1 1 1 1 1 1 1 1 1 1 1 1 1 1 1 1 1 1 1 1 1 1 1 1 1 1 1 1 1 1 1 1 1 1 1 1 1 1 1 1 1 1 1 1 1 1 1 1 1 0 1 1 1 1 1 1 1 1 1 1 1 1 1 1 1 1 1 1 1 1 1 1 1 1 1 1 1 1 1 1 1 1 1 1 1 1 1 1 1 1 1 1 1 1 1 1 1 1 1 0 1 1 1 1 1 1 1 1 1 1 1 1 1 1 

SCALARS geom_link_dim int 1
LOOKUP_TABLE default
0 0 0 0 0 0 0 0 0 0 0 0 0 0 0 0 0 0 0 0 0 0 0 0 0 0 0 0 0 0 0 0 0 0 0 0 0 0 0 0 0 0 0 0 0 0 0 0 0 0 0 0 0 0 0 0 0 0 0 0 0 0 0 0 0 0 0 0 0 0 0 0 0 0 0 0 0 0 0 0 0 0 0 0 0 0 0 0 0 0 0 0 0 0 0 0 0 0 0 0 0 0 0 0 0 0 0 0 0 0 0 0 0 0 0 0 0 0 0 0 0 0 0 0 0 

SCALARS geom_link_id int 1
LOOKUP_TABLE default
0 0 0 0 0 0 0 0 0 0 0 0 0 0 0 0 0 -1 -1 0 0 0 0 0 0 0 0 0 0 0 0 0 0 0 0 -1 -1 -1 -1 0 0 0 0 0 0 0 0 0 -1 0 -1 -1 -1 0 0 0 0 0 0 0 0 -1 -1 0 0 -1 -1 -1 -1 0 0 0 0 -1 -1 0 0 -1 -1 0 0 0 0 0 0 0 0 0 0 0 0 0 0 0 0 -1 -1 -1 -1 -1 -1 -1 -1 -1 -1 -1 -1 -1 -1 -1 -1 -1 -1 -1 -1 -1 -1 -1 -1 -1 -1 -1 -1 -1 -1 

