# vtk DataFile Version 3.0
Generated by GMDS VTK Writer

ASCII
DATASET UNSTRUCTURED_GRID
POINTS 125 float
-5 -5 -5
-5 5 -5
5 5 -5
5 -5 -5
-5 -5 5
-5 5 5
5 5 5
5 -5 5
4 -5 -5
4 5 -5
4 5 5
4 -5 5
-5 1 -5
-5 1 5
4 1 5
4 1 -5
5 1 5
5 1 -5
-5 -5 -1
4 -5 -1
4 1 -1
-5 1 -1
4 5 -1
-5 5 -1
5 -5 -1
5 1 -1
5 5 -1
-5 3 -1
4 3 -1
4 3 5
-5 3 5
-5 3 -5
4 3 -5
5 3 -5
5 3 -1
5 3 5
-1 -5 -5
-1 1 -5
-1 1 -1
-1 -5 -1
-1 3 5
-1 3 -1
-1 5 -1
-1 5 5
-1 1 5
-1 -5 5
-1 3 -5
-1 5 -5
5 -5 3
4 -5 3
4 1 3
5 1 3
5 3 3
4 3 3
5 5 3
4 5 3
-5 5 3
-5 3 3
-1 3 3
-1 5 3
-5 1 3
-1 1 3
-5 -5 3
-1 -5 3
4 1 1
5 1 1
5 3 1
4 3 1
5 -5 0.999999999999999
4 -5 1
5 5 0.999999999999999
4 5 1
-5 5 1
-5 3 1
-1 3 1
-1 5 1
-5 1 1
-1 1 1
-5 -5 0.999999999999999
-1 -5 0.999999999999999
-1 -1 -5
-1 -1 -1
4 -1 -1
4 -1 -5
-5 -0.999999999999999 -5
-5 -1 -1
5 -1 -5
5 -1 -1
5 -1 5
4 -1 5
4 -1 3
5 -1 3
5 -1 1
4 -1 1
-5 -1 5
-1 -1 5
-1 -1 3
-5 -1 3
-1 -1 1
-5 -1 1
1 1 -5
1 1 -1
1 3 -1
1 3 -5
1 1 5
1 3 5
1 3 3
1 1 3
1 3 1
1 5 1
1 5 -1
1 5 3
1 5 -5
1 1 1
1 5 5
1 -1 -5
1 -1 -1
0.999999999999999 -5 -5
1 -5 -1
1 -5 5
1 -5 3
1 -1 3
1 -1 5
1 -5 1
1 -1 1

CELLS 64 576
8 32 28 22 9 103 102 110 112 
8 14 16 35 29 50 51 52 53 
8 7 11 49 48 88 89 90 91 
8 88 89 90 91 16 14 50 51 
8 29 35 6 10 53 52 54 55 
8 68 69 19 24 92 93 82 87 
8 67 66 70 71 28 34 26 22 
8 53 52 54 55 67 66 70 71 
8 103 102 110 112 46 41 42 47 
8 113 108 102 101 77 74 41 38 
8 64 67 28 20 113 108 102 101 
8 15 17 25 20 32 33 34 28 
8 32 33 34 28 9 2 26 22 
8 72 73 74 75 23 27 41 42 
8 56 57 58 59 72 73 74 75 
8 106 111 109 108 58 59 75 74 
8 53 55 71 67 106 111 109 108 
8 64 65 66 67 20 25 34 28 
8 50 51 52 53 64 65 66 67 
8 12 21 27 31 37 38 41 46 
8 31 27 23 1 46 41 42 47 
8 5 30 40 43 56 57 58 59 
8 86 83 82 87 17 15 20 25 
8 3 8 19 24 86 83 82 87 
8 13 30 40 44 60 57 58 61 
8 84 85 81 80 12 21 38 37 
8 0 18 39 36 84 85 81 80 
8 108 109 110 102 74 75 42 41 
8 67 71 22 28 108 109 110 102 
8 60 57 58 61 76 73 74 77 
8 76 73 74 77 21 27 41 38 
8 104 105 106 107 44 40 58 61 
8 14 29 53 50 104 105 106 107 
8 100 101 102 103 37 38 41 46 
8 15 20 28 32 100 101 102 103 
8 92 93 82 87 65 64 20 25 
8 48 49 69 68 91 90 93 92 
8 91 90 93 92 51 50 64 65 
8 4 45 63 62 94 95 96 97 
8 94 95 96 97 13 44 61 60 
8 62 63 79 78 97 96 98 99 
8 97 96 98 99 60 61 77 76 
8 78 79 39 18 99 98 81 85 
8 99 98 81 85 76 77 38 21 
8 50 53 67 64 107 106 108 113 
8 107 106 108 113 61 58 74 77 
8 10 29 53 55 114 105 106 111 
8 114 105 106 111 43 40 58 59 
8 83 82 20 15 115 116 101 100 
8 115 116 101 100 80 81 38 37 
8 8 19 82 83 117 118 116 115 
8 117 118 116 115 36 39 81 80 
8 11 49 90 89 119 120 121 122 
8 119 120 121 122 45 63 96 95 
8 89 90 50 14 122 121 107 104 
8 122 121 107 104 95 96 61 44 
8 19 69 93 82 118 123 124 116 
8 118 123 124 116 39 79 98 81 
8 82 93 64 20 116 124 113 101 
8 116 124 113 101 81 98 77 38 
8 49 69 93 90 120 123 124 121 
8 120 123 124 121 63 79 98 96 
8 90 93 64 50 121 124 113 107 
8 121 124 113 107 96 98 77 61 

CELL_TYPES 64
12 
12 
12 
12 
12 
12 
12 
12 
12 
12 
12 
12 
12 
12 
12 
12 
12 
12 
12 
12 
12 
12 
12 
12 
12 
12 
12 
12 
12 
12 
12 
12 
12 
12 
12 
12 
12 
12 
12 
12 
12 
12 
12 
12 
12 
12 
12 
12 
12 
12 
12 
12 
12 
12 
12 
12 
12 
12 
12 
12 
12 
12 
12 
12 
POINT_DATA 125
SCALARS GMDS_ID int 1
LOOKUP_TABLE default
0 1 2 3 4 5 6 7 8 9 10 11 12 13 14 15 16 17 18 19 20 21 22 23 24 25 26 27 28 29 30 31 32 33 34 35 36 37 38 39 40 41 42 43 44 45 46 47 48 49 50 51 52 53 54 55 56 57 58 59 60 61 62 63 64 65 66 67 68 69 70 71 72 73 74 75 76 77 78 79 80 81 82 83 84 85 86 87 88 89 90 91 92 93 94 95 96 97 98 99 100 101 102 103 104 105 106 107 108 109 110 111 112 113 114 115 116 117 118 119 120 121 122 123 124 
SCALARS geom_link_dim_0 int 1
LOOKUP_TABLE default
0 0 0 0 0 0 0 0 0 0 0 0 0 0 0 0 0 0 0 0 0 0 0 0 0 0 0 0 0 0 0 0 0 0 0 0 0 0 0 0 0 0 0 0 0 0 0 0 0 0 0 0 0 0 0 0 0 0 0 0 0 0 0 0 0 0 0 0 0 0 0 0 0 0 0 0 0 0 0 0 0 0 0 0 0 0 0 0 0 0 0 0 0 0 0 0 0 0 0 0 0 0 0 0 0 0 0 0 0 0 0 0 0 0 0 0 0 0 0 0 0 0 0 0 0 
SCALARS geom_link_id_0 int 1
LOOKUP_TABLE default
0 0 0 0 0 0 0 0 0 0 0 0 0 0 0 0 0 0 0 0 0 0 0 0 0 0 0 0 0 0 0 0 0 0 0 0 0 0 0 0 0 0 0 0 0 0 0 0 0 0 0 0 0 0 0 0 0 0 0 0 0 0 0 0 0 0 0 0 0 0 0 0 0 0 0 0 0 0 0 0 0 0 0 0 0 0 0 0 0 0 0 0 0 0 0 0 0 0 0 0 0 0 0 0 0 0 0 0 0 0 0 0 0 0 0 0 0 0 0 0 0 0 0 0 0 


CELL_DATA 64
SCALARS GMDS_ID int 1
LOOKUP_TABLE default
0 1 2 3 4 5 6 7 8 10 11 12 13 14 15 16 17 18 19 20 22 24 25 27 28 29 31 32 34 37 38 41 42 43 44 45 46 47 48 49 52 53 54 55 60 61 62 63 64 65 66 67 68 69 70 71 72 73 74 75 76 77 78 79 

SCALARS geom_link_dim_0 int 1
LOOKUP_TABLE default
0 0 0 0 0 0 0 0 0 0 0 0 0 0 0 0 0 0 0 0 0 0 0 0 0 0 0 0 0 0 0 0 0 0 0 0 0 0 0 0 0 0 0 0 0 0 0 0 0 0 0 0 0 0 0 0 0 0 0 0 0 0 0 0 

SCALARS geom_link_id_0 int 1
LOOKUP_TABLE default
0 0 0 0 0 0 0 0 0 0 0 0 0 0 0 0 0 0 0 0 0 0 0 0 0 0 0 0 0 0 0 0 0 0 0 0 0 0 0 0 0 0 0 0 0 0 0 0 0 0 0 0 0 0 0 0 0 0 0 0 0 0 0 0 

