# vtk DataFile Version 3.0
Generated by GMDS VTK Writer

ASCII
DATASET UNSTRUCTURED_GRID
POINTS 18 float
-5 -5 -5
-5 5 -5
5 5 -5
5 -5 -5
-5 -5 5
-5 5 5
5 5 5
5 -5 5
4 -5 -5
4 5 -5
4 5 5
4 -5 5
-5 1 -5
-5 1 5
4 1 5
4 1 -5
5 1 5
5 1 -5

CELLS 4 36
8 0 4 11 8 12 13 14 15 
8 12 13 14 15 1 5 10 9 
8 8 11 7 3 15 14 16 17 
8 15 14 16 17 9 10 6 2 

CELL_TYPES 4
12 
12 
12 
12 
POINT_DATA 18
SCALARS GMDS_ID int 1
LOOKUP_TABLE default
0 1 2 3 4 5 6 7 8 9 10 11 12 13 14 15 16 17 
SCALARS geom_link_dim_0 int 1
LOOKUP_TABLE default
0 0 0 0 0 0 0 0 0 0 0 0 0 0 0 0 0 0 
SCALARS geom_link_id_0 int 1
LOOKUP_TABLE default
0 0 0 0 0 0 0 0 0 0 0 0 0 0 0 0 0 0 


CELL_DATA 4
SCALARS GMDS_ID int 1
LOOKUP_TABLE default
0 3 4 5 

SCALARS geom_link_dim_0 int 1
LOOKUP_TABLE default
0 0 0 0 

SCALARS geom_link_id_0 int 1
LOOKUP_TABLE default
0 0 0 0 

