# vtk DataFile Version 3.0
Generated by GMDS VTK Writer

ASCII
DATASET UNSTRUCTURED_GRID
POINTS 216 float
-5 -5 -5
-5 5 -5
5 5 -5
5 -5 -5
-5 -5 5
-5 5 5
5 5 5
5 -5 5
-5 -1 -5
-5 -1 5
5 -1 5
5 -1 -5
-5 -5 -1
5 -5 -1
5 -1 -1
-5 -1 -1
5 5 -1
-5 5 -1
-1 -5 -5
-1 -1 -5
-1 -1 -1
-1 -5 -1
-1 -1 5
-1 -5 5
-1 5 -5
-1 5 -1
-1 5 5
-1 0.999999999999999 -5
-1 1 -1
5 0.999999999999999 -1
5 0.999999999999999 -5
-5 1 -5
-5 1 -1
-5 0.999999999999999 5
-1 0.999999999999999 5
5 0.999999999999999 5
-5 -5 1
-5 -1 1
-1 -1 1
-1 -5 1
5 -1 1
5 -5 1
-1 1 1
-5 1 1
-1 5 1
-5 5 1
5 0.999999999999999 1
5 5 1
1 0.999999999999999 -5
1 1 -1
1 5 -1
1 5 -5
1 -1 -5
1 -1 -1
0.999999999999999 -5 -5
1 -5 -1
1 -1 1
1 -5 1
1 -1 5
1 -5 5
1 0.999999999999999 5
1 1 1
1 5 5
1 5 1
-5 3 -5
-5 3 -1
-1 3 -1
-1 3 -5
1 3 -5
1 3 -1
5 3 -1
5 3 -5
-5 3 5
-1 3 5
-1 3 1
-5 3 1
1 3 1
1 3 5
5 3 1
5 3 5
-5 0.999999999999999 3
-1 0.999999999999999 3
-1 3 3
-5 3 3
-5 -5 3
-5 -1 3
-1 -1 3
-1 -5 3
1 -5 3
1 -1 3
5 -5 3
5 -1 3
1 0.999999999999999 3
5 0.999999999999999 3
-1 5 3
-5 5 3
1 3 3
1 5 3
5 3 3
5 5 3
3 -1 -5
3 -1 -1
3 1 -1
3 0.999999999999999 -5
3 3 -5
3 3 -1
3 5 -1
3 5 -5
3 -5 -5
3 -5 -1
3 -1 1
3 -5 1
3 0.999999999999999 1
3 3 1
3 5 1
3 -1 5
3 -5 5
3 -5 3
3 -1 3
3 0.999999999999999 5
3 0.999999999999999 3
3 3 5
3 3 3
3 5 5
3 5 3
-5 0.999999999999999 4
-1 0.999999999999999 4
-1 3 4
-5 3 4
-5 -5 4
-5 -1 4
-1 -1 4
-1 -5 4
1 -5 4
1 -1 4
1 0.999999999999999 4
-1 5 4
-5 5 4
1 3 4
1 5 4
3 -5 4
3 -1 4
5 -5 4
5 -1 4
3 0.999999999999999 4
5 0.999999999999999 4
3 3 4
5 3 4
3 5 4
5 5 4
-1 4 -5
-1 4 -1
1 4 -1
1 4 -5
-5 4 -5
-5 4 -1
-5 4 3
-1 4 3
-1 4 1
-5 4 1
3 4 -5
3 4 -1
5 4 -1
5 4 -5
1 4 1
1 4 3
-5 4 4
-1 4 4
-5 4 5
-1 4 5
3 4 1
5 4 1
3 4 3
5 4 3
1 4 5
1 4 4
3 4 5
3 4 4
5 4 5
5 4 4
4 -5 -5
4 -1 -5
4 -1 -1
4 -5 -1
4 0.999999999999999 -5
4 1 -1
4 3 -1
4 3 -5
4 4 -5
4 4 -1
4 5 -1
4 5 -5
4 -1 1
4 -5 1
4 0.999999999999999 1
4 3 1
4 -1 3
4 -5 3
4 0.999999999999999 3
4 3 3
4 -1 5
4 -5 5
4 -5 4
4 -1 4
4 0.999999999999999 5
4 0.999999999999999 4
4 3 5
4 3 4
4 4 1
4 5 1
4 4 3
4 5 3
4 4 4
4 4 5
4 5 4
4 5 5

CELLS 125 1125
8 131 132 133 134 86 87 88 89 
8 0 8 15 12 18 19 20 21 
8 8 15 20 19 31 32 28 27 
8 43 42 28 32 75 74 66 65 
8 48 49 69 68 103 102 105 104 
8 34 60 77 73 126 135 138 127 
8 18 19 20 21 54 52 53 55 
8 27 28 49 48 67 66 69 68 
8 196 198 194 192 91 93 46 40 
8 36 37 38 39 12 15 20 21 
8 56 61 49 53 110 112 102 101 
8 100 101 102 103 181 182 185 184 
8 19 20 28 27 52 53 49 48 
8 86 87 88 89 38 39 57 56 
8 66 74 76 69 151 158 164 152 
8 37 38 42 43 15 20 28 32 
8 85 86 81 80 37 38 42 43 
8 151 158 164 152 25 44 63 50 
8 181 182 185 184 11 14 29 30 
8 126 135 138 127 81 92 96 82 
8 118 120 112 110 196 198 194 192 
8 31 32 28 27 64 65 66 67 
8 38 39 21 20 56 57 55 53 
8 192 193 183 182 40 41 13 14 
8 56 57 55 53 110 111 109 101 
8 54 52 53 55 108 100 101 109 
8 38 42 28 20 56 61 49 53 
8 110 111 109 101 192 193 183 182 
8 84 85 86 87 36 37 38 39 
8 82 96 76 74 157 165 164 158 
8 80 81 82 83 43 42 74 75 
8 157 165 164 158 94 97 63 44 
8 102 112 113 105 185 194 195 186 
8 118 117 111 110 196 197 193 192 
8 185 194 195 186 29 46 78 70 
8 52 53 49 48 100 101 102 103 
8 28 42 61 49 66 74 76 69 
8 192 194 185 182 40 46 29 14 
8 131 126 135 134 86 81 92 89 
8 22 34 60 58 131 126 135 134 
8 22 23 59 58 131 132 133 134 
8 159 158 151 155 45 44 25 17 
8 86 81 92 89 38 42 61 56 
8 130 131 126 125 85 86 81 80 
8 9 22 34 33 130 131 126 125 
8 75 74 66 65 159 158 151 155 
8 196 197 193 192 91 90 41 40 
8 153 152 161 160 51 50 106 107 
8 81 92 96 82 42 61 76 74 
8 68 69 105 104 153 152 161 160 
8 110 112 102 101 192 194 185 182 
8 129 130 131 132 84 85 86 87 
8 4 9 22 23 129 130 131 132 
8 125 126 127 128 80 81 82 83 
8 33 34 73 72 125 126 127 128 
8 49 61 76 69 102 112 113 105 
8 187 186 189 188 71 70 162 163 
8 104 105 161 160 187 186 189 188 
8 89 88 57 56 118 117 111 110 
8 156 157 158 159 95 94 44 45 
8 83 82 74 75 156 157 158 159 
8 89 92 61 56 118 120 112 110 
8 154 155 151 150 1 17 25 24 
8 64 65 66 67 154 155 151 150 
8 92 96 76 61 120 122 113 112 
8 150 151 152 153 24 25 50 51 
8 67 66 69 68 150 151 152 153 
8 188 189 190 191 163 162 16 2 
8 160 161 106 107 188 189 190 191 
8 58 59 116 115 134 133 140 141 
8 134 133 140 141 89 88 117 118 
8 58 60 119 115 134 135 144 141 
8 134 135 144 141 89 92 120 118 
8 60 77 121 119 135 138 146 144 
8 135 138 146 144 92 96 122 120 
8 184 185 186 187 30 29 70 71 
8 103 102 105 104 184 185 186 187 
8 180 181 182 183 3 11 14 13 
8 108 100 101 109 180 181 182 183 
8 128 127 82 83 166 167 157 156 
8 166 167 157 156 137 136 94 95 
8 72 73 127 128 168 169 167 166 
8 168 169 167 166 5 26 136 137 
8 69 76 113 105 152 164 170 161 
8 152 164 170 161 50 63 114 106 
8 76 96 122 113 164 165 172 170 
8 164 165 172 170 63 97 124 114 
8 73 77 138 127 169 174 175 167 
8 169 174 175 167 26 62 139 136 
8 127 138 96 82 167 175 165 157 
8 167 175 165 157 136 139 97 94 
8 77 121 146 138 174 176 177 175 
8 174 176 177 175 62 123 148 139 
8 138 146 122 96 175 177 172 165 
8 175 177 172 165 139 148 124 97 
8 120 122 113 112 198 199 195 194 
8 198 199 195 194 93 98 78 46 
8 115 116 140 141 200 201 202 203 
8 200 201 202 203 10 7 142 143 
8 141 140 117 118 203 202 197 196 
8 203 202 197 196 143 142 90 91 
8 115 119 144 141 200 204 205 203 
8 200 204 205 203 10 35 145 143 
8 141 144 120 118 203 205 198 196 
8 203 205 198 196 143 145 93 91 
8 119 121 146 144 204 206 207 205 
8 204 206 207 205 35 79 147 145 
8 144 146 122 120 205 207 199 198 
8 205 207 199 198 145 147 98 93 
8 105 113 170 161 186 195 208 189 
8 186 195 208 189 70 78 171 162 
8 161 170 114 106 189 208 209 190 
8 189 208 209 190 162 171 47 16 
8 113 122 172 170 195 199 210 208 
8 195 199 210 208 78 98 173 171 
8 170 172 124 114 208 210 211 209 
8 208 210 211 209 171 173 99 47 
8 121 146 177 176 206 207 212 213 
8 206 207 212 213 79 147 179 178 
8 176 177 148 123 213 212 214 215 
8 213 212 214 215 178 179 149 6 
8 122 146 177 172 199 207 212 210 
8 199 207 212 210 98 147 179 173 
8 172 177 148 124 210 212 214 211 
8 210 212 214 211 173 179 149 99 

CELL_TYPES 125
12 
12 
12 
12 
12 
12 
12 
12 
12 
12 
12 
12 
12 
12 
12 
12 
12 
12 
12 
12 
12 
12 
12 
12 
12 
12 
12 
12 
12 
12 
12 
12 
12 
12 
12 
12 
12 
12 
12 
12 
12 
12 
12 
12 
12 
12 
12 
12 
12 
12 
12 
12 
12 
12 
12 
12 
12 
12 
12 
12 
12 
12 
12 
12 
12 
12 
12 
12 
12 
12 
12 
12 
12 
12 
12 
12 
12 
12 
12 
12 
12 
12 
12 
12 
12 
12 
12 
12 
12 
12 
12 
12 
12 
12 
12 
12 
12 
12 
12 
12 
12 
12 
12 
12 
12 
12 
12 
12 
12 
12 
12 
12 
12 
12 
12 
12 
12 
12 
12 
12 
12 
12 
12 
12 
12 
POINT_DATA 216
SCALARS GMDS_ID int 1
LOOKUP_TABLE default
0 1 2 3 4 5 6 7 8 9 10 11 12 13 14 15 16 17 18 19 20 21 22 23 24 25 26 27 28 29 30 31 32 33 34 35 36 37 38 39 40 41 42 43 44 45 46 47 48 49 50 51 52 53 54 55 56 57 58 59 60 61 62 63 64 65 66 67 68 69 70 71 72 73 74 75 76 77 78 79 80 81 82 83 84 85 86 87 88 89 90 91 92 93 94 95 96 97 98 99 100 101 102 103 104 105 106 107 108 109 110 111 112 113 114 115 116 117 118 119 120 121 122 123 124 125 126 127 128 129 130 131 132 133 134 135 136 137 138 139 140 141 142 143 144 145 146 147 148 149 150 151 152 153 154 155 156 157 158 159 160 161 162 163 164 165 166 167 168 169 170 171 172 173 174 175 176 177 178 179 180 181 182 183 184 185 186 187 188 189 190 191 192 193 194 195 196 197 198 199 200 201 202 203 204 205 206 207 208 209 210 211 212 213 214 215 
SCALARS geom_link_dim_0 int 1
LOOKUP_TABLE default
0 0 0 0 0 0 0 0 0 0 0 0 0 0 0 0 0 0 0 0 0 0 0 0 0 0 0 0 0 0 0 0 0 0 0 0 0 0 0 0 0 0 0 0 0 0 0 0 0 0 0 0 0 0 0 0 0 0 0 0 0 0 0 0 0 0 0 0 0 0 0 0 0 0 0 0 0 0 0 0 0 0 0 0 0 0 0 0 0 0 0 0 0 0 0 0 0 0 0 0 0 0 0 0 0 0 0 0 0 0 0 0 0 0 0 0 0 0 0 0 0 0 0 0 0 0 0 0 0 0 0 0 0 0 0 0 0 0 0 0 0 0 0 0 0 0 0 0 0 0 0 0 0 0 0 0 0 0 0 0 0 0 0 0 0 0 0 0 0 0 0 0 0 0 0 0 0 0 0 0 0 0 0 0 0 0 0 0 0 0 0 0 0 0 0 0 0 0 0 0 0 0 0 0 0 0 0 0 0 0 0 0 0 0 0 0 
SCALARS geom_link_id_0 int 1
LOOKUP_TABLE default
0 0 0 0 0 0 0 0 0 0 0 0 0 0 0 0 0 0 0 0 0 0 0 0 0 0 0 0 0 0 0 0 0 0 0 0 0 0 0 0 0 0 0 0 0 0 0 0 0 0 0 0 0 0 0 0 0 0 0 0 0 0 0 0 0 0 0 0 0 0 0 0 0 0 0 0 0 0 0 0 0 0 0 0 0 0 0 0 0 0 0 0 0 0 0 0 0 0 0 0 0 0 0 0 0 0 0 0 0 0 0 0 0 0 0 0 0 0 0 0 0 0 0 0 0 0 0 0 0 0 0 0 0 0 0 0 0 0 0 0 0 0 0 0 0 0 0 0 0 0 0 0 0 0 0 0 0 0 0 0 0 0 0 0 0 0 0 0 0 0 0 0 0 0 0 0 0 0 0 0 0 0 0 0 0 0 0 0 0 0 0 0 0 0 0 0 0 0 0 0 0 0 0 0 0 0 0 0 0 0 0 0 0 0 0 0 


CELL_DATA 125
SCALARS GMDS_ID int 1
LOOKUP_TABLE default
0 2 3 4 5 6 7 8 9 10 11 12 13 14 15 17 18 19 20 21 22 23 24 25 26 28 30 31 32 33 34 35 36 37 38 40 41 42 43 44 45 46 47 48 49 50 51 52 53 54 55 56 57 58 59 60 62 63 66 68 69 70 72 73 74 76 77 78 79 80 81 84 85 88 89 92 93 94 95 96 97 98 99 100 101 104 105 108 109 110 111 112 113 114 115 120 121 122 123 124 125 126 127 128 129 130 131 132 133 134 135 136 137 138 139 140 141 142 143 144 145 146 147 148 149 

SCALARS geom_link_dim_0 int 1
LOOKUP_TABLE default
0 0 0 0 0 0 0 0 0 0 0 0 0 0 0 0 0 0 0 0 0 0 0 0 0 0 0 0 0 0 0 0 0 0 0 0 0 0 0 0 0 0 0 0 0 0 0 0 0 0 0 0 0 0 0 0 0 0 0 0 0 0 0 0 0 0 0 0 0 0 0 0 0 0 0 0 0 0 0 0 0 0 0 0 0 0 0 0 0 0 0 0 0 0 0 0 0 0 0 0 0 0 0 0 0 0 0 0 0 0 0 0 0 0 0 0 0 0 0 0 0 0 0 0 0 

SCALARS geom_link_id_0 int 1
LOOKUP_TABLE default
0 0 0 0 0 0 0 0 0 0 0 0 0 0 0 0 0 0 0 0 0 0 0 0 0 0 0 0 0 0 0 0 0 0 0 0 0 0 0 0 0 0 0 0 0 0 0 0 0 0 0 0 0 0 0 0 0 0 0 0 0 0 0 0 0 0 0 0 0 0 0 0 0 0 0 0 0 0 0 0 0 0 0 0 0 0 0 0 0 0 0 0 0 0 0 0 0 0 0 0 0 0 0 0 0 0 0 0 0 0 0 0 0 0 0 0 0 0 0 0 0 0 0 0 0 

