# vtk DataFile Version 3.0
Generated by GMDS VTK Writer

ASCII
DATASET UNSTRUCTURED_GRID
POINTS 150 float
-5 -5 -5
-5 5 -5
5 5 -5
5 -5 -5
-5 -5 5
-5 5 5
5 5 5
5 -5 5
-5 -1 -5
-5 -1 5
5 -1 5
5 -1 -5
-5 -5 -1
5 -5 -1
5 -1 -1
-5 -1 -1
5 5 -1
-5 5 -1
-1 -5 -5
-1 -1 -5
-1 -1 -1
-1 -5 -1
-1 -1 5
-1 -5 5
-1 5 -5
-1 5 -1
-1 5 5
-1 0.999999999999999 -5
-1 1 -1
5 0.999999999999999 -1
5 0.999999999999999 -5
-5 1 -5
-5 1 -1
-5 0.999999999999999 5
-1 0.999999999999999 5
5 0.999999999999999 5
-5 -5 1
-5 -1 1
-1 -1 1
-1 -5 1
5 -1 1
5 -5 1
-1 1 1
-5 1 1
-1 5 1
-5 5 1
5 0.999999999999999 1
5 5 1
1 0.999999999999999 -5
1 1 -1
1 5 -1
1 5 -5
1 -1 -5
1 -1 -1
0.999999999999999 -5 -5
1 -5 -1
1 -1 1
1 -5 1
1 -1 5
1 -5 5
1 0.999999999999999 5
1 1 1
1 5 5
1 5 1
-5 3 -5
-5 3 -1
-1 3 -1
-1 3 -5
1 3 -5
1 3 -1
5 3 -1
5 3 -5
-5 3 5
-1 3 5
-1 3 1
-5 3 1
1 3 1
1 3 5
5 3 1
5 3 5
-5 0.999999999999999 3
-1 0.999999999999999 3
-1 3 3
-5 3 3
-5 -5 3
-5 -1 3
-1 -1 3
-1 -5 3
1 -5 3
1 -1 3
5 -5 3
5 -1 3
1 0.999999999999999 3
5 0.999999999999999 3
-1 5 3
-5 5 3
1 3 3
1 5 3
5 3 3
5 5 3
3 -1 -5
3 -1 -1
3 1 -1
3 0.999999999999999 -5
3 3 -5
3 3 -1
3 5 -1
3 5 -5
3 -5 -5
3 -5 -1
3 -1 1
3 -5 1
3 0.999999999999999 1
3 3 1
3 5 1
3 -1 5
3 -5 5
3 -5 3
3 -1 3
3 0.999999999999999 5
3 0.999999999999999 3
3 3 5
3 3 3
3 5 5
3 5 3
-5 0.999999999999999 4
-1 0.999999999999999 4
-1 3 4
-5 3 4
-5 -5 4
-5 -1 4
-1 -1 4
-1 -5 4
1 -5 4
1 -1 4
1 0.999999999999999 4
-1 5 4
-5 5 4
1 3 4
1 5 4
3 -5 4
3 -1 4
5 -5 4
5 -1 4
3 0.999999999999999 4
5 0.999999999999999 4
3 3 4
5 3 4
3 5 4
5 5 4

CELLS 80 720
8 131 132 133 134 86 87 88 89 
8 110 112 102 101 40 46 29 14 
8 0 8 15 12 18 19 20 21 
8 8 15 20 19 31 32 28 27 
8 43 42 28 32 75 74 66 65 
8 48 49 69 68 103 102 105 104 
8 34 60 77 73 126 135 138 127 
8 18 19 20 21 54 52 53 55 
8 27 28 49 48 67 66 69 68 
8 67 66 69 68 24 25 50 51 
8 36 37 38 39 12 15 20 21 
8 56 61 49 53 110 112 102 101 
8 127 138 139 136 82 96 97 94 
8 19 20 28 27 52 53 49 48 
8 86 87 88 89 38 39 57 56 
8 110 111 109 101 40 41 13 14 
8 37 38 42 43 15 20 28 32 
8 85 86 81 80 37 38 42 43 
8 73 77 62 26 127 138 139 136 
8 126 135 138 127 81 92 96 82 
8 64 65 66 67 1 17 25 24 
8 31 32 28 27 64 65 66 67 
8 38 39 21 20 56 57 55 53 
8 128 127 136 137 83 82 94 95 
8 56 57 55 53 110 111 109 101 
8 108 100 101 109 3 11 14 13 
8 54 52 53 55 108 100 101 109 
8 103 102 105 104 30 29 70 71 
8 38 42 28 20 56 61 49 53 
8 72 73 26 5 128 127 136 137 
8 84 85 86 87 36 37 38 39 
8 80 81 82 83 43 42 74 75 
8 75 74 66 65 45 44 25 17 
8 104 105 106 107 71 70 16 2 
8 68 69 50 51 104 105 106 107 
8 100 101 102 103 11 14 29 30 
8 52 53 49 48 100 101 102 103 
8 28 42 61 49 66 74 76 69 
8 66 74 76 69 25 44 63 50 
8 131 126 135 134 86 81 92 89 
8 22 34 60 58 131 126 135 134 
8 22 23 59 58 131 132 133 134 
8 86 81 92 89 38 42 61 56 
8 130 131 126 125 85 86 81 80 
8 9 22 34 33 130 131 126 125 
8 83 82 94 95 75 74 44 45 
8 81 92 96 82 42 61 76 74 
8 82 96 97 94 74 76 63 44 
8 129 130 131 132 84 85 86 87 
8 4 9 22 23 129 130 131 132 
8 125 126 127 128 80 81 82 83 
8 33 34 73 72 125 126 127 128 
8 49 61 76 69 102 112 113 105 
8 102 112 113 105 29 46 78 70 
8 69 76 63 50 105 113 114 106 
8 105 113 114 106 70 78 47 16 
8 89 88 57 56 118 117 111 110 
8 118 117 111 110 91 90 41 40 
8 89 92 61 56 118 120 112 110 
8 118 120 112 110 91 93 46 40 
8 92 96 76 61 120 122 113 112 
8 120 122 113 112 93 98 78 46 
8 97 96 76 63 124 122 113 114 
8 124 122 113 114 99 98 78 47 
8 58 59 116 115 134 133 140 141 
8 134 133 140 141 89 88 117 118 
8 115 116 7 10 141 140 142 143 
8 141 140 142 143 118 117 90 91 
8 58 60 119 115 134 135 144 141 
8 134 135 144 141 89 92 120 118 
8 115 119 35 10 141 144 145 143 
8 141 144 145 143 118 120 93 91 
8 60 77 121 119 135 138 146 144 
8 135 138 146 144 92 96 122 120 
8 119 121 79 35 144 146 147 145 
8 144 146 147 145 120 122 98 93 
8 62 77 121 123 139 138 146 148 
8 139 138 146 148 97 96 122 124 
8 123 121 79 6 148 146 147 149 
8 148 146 147 149 124 122 98 99 

CELL_TYPES 80
12 
12 
12 
12 
12 
12 
12 
12 
12 
12 
12 
12 
12 
12 
12 
12 
12 
12 
12 
12 
12 
12 
12 
12 
12 
12 
12 
12 
12 
12 
12 
12 
12 
12 
12 
12 
12 
12 
12 
12 
12 
12 
12 
12 
12 
12 
12 
12 
12 
12 
12 
12 
12 
12 
12 
12 
12 
12 
12 
12 
12 
12 
12 
12 
12 
12 
12 
12 
12 
12 
12 
12 
12 
12 
12 
12 
12 
12 
12 
12 
POINT_DATA 150
SCALARS GMDS_ID int 1
LOOKUP_TABLE default
0 1 2 3 4 5 6 7 8 9 10 11 12 13 14 15 16 17 18 19 20 21 22 23 24 25 26 27 28 29 30 31 32 33 34 35 36 37 38 39 40 41 42 43 44 45 46 47 48 49 50 51 52 53 54 55 56 57 58 59 60 61 62 63 64 65 66 67 68 69 70 71 72 73 74 75 76 77 78 79 80 81 82 83 84 85 86 87 88 89 90 91 92 93 94 95 96 97 98 99 100 101 102 103 104 105 106 107 108 109 110 111 112 113 114 115 116 117 118 119 120 121 122 123 124 125 126 127 128 129 130 131 132 133 134 135 136 137 138 139 140 141 142 143 144 145 146 147 148 149 
SCALARS geom_link_dim_0 int 1
LOOKUP_TABLE default
0 0 0 0 0 0 0 0 0 0 0 0 0 0 0 0 0 0 0 0 0 0 0 0 0 0 0 0 0 0 0 0 0 0 0 0 0 0 0 0 0 0 0 0 0 0 0 0 0 0 0 0 0 0 0 0 0 0 0 0 0 0 0 0 0 0 0 0 0 0 0 0 0 0 0 0 0 0 0 0 0 0 0 0 0 0 0 0 0 0 0 0 0 0 0 0 0 0 0 0 0 0 0 0 0 0 0 0 0 0 0 0 0 0 0 0 0 0 0 0 0 0 0 0 0 0 0 0 0 0 0 0 0 0 0 0 0 0 0 0 0 0 0 0 0 0 0 0 0 0 
SCALARS geom_link_id_0 int 1
LOOKUP_TABLE default
0 0 0 0 0 0 0 0 0 0 0 0 0 0 0 0 0 0 0 0 0 0 0 0 0 0 0 0 0 0 0 0 0 0 0 0 0 0 0 0 0 0 0 0 0 0 0 0 0 0 0 0 0 0 0 0 0 0 0 0 0 0 0 0 0 0 0 0 0 0 0 0 0 0 0 0 0 0 0 0 0 0 0 0 0 0 0 0 0 0 0 0 0 0 0 0 0 0 0 0 0 0 0 0 0 0 0 0 0 0 0 0 0 0 0 0 0 0 0 0 0 0 0 0 0 0 0 0 0 0 0 0 0 0 0 0 0 0 0 0 0 0 0 0 0 0 0 0 0 0 


CELL_DATA 80
SCALARS GMDS_ID int 1
LOOKUP_TABLE default
0 1 2 3 4 5 6 7 8 9 10 11 12 13 14 16 17 18 20 21 22 23 24 25 26 27 28 29 30 31 32 34 36 37 38 39 40 41 42 43 44 45 47 48 49 51 53 55 56 57 58 59 60 61 62 63 66 67 70 71 74 75 78 79 80 81 82 83 84 85 86 87 88 89 90 91 92 93 94 95 

SCALARS geom_link_dim_0 int 1
LOOKUP_TABLE default
0 0 0 0 0 0 0 0 0 0 0 0 0 0 0 0 0 0 0 0 0 0 0 0 0 0 0 0 0 0 0 0 0 0 0 0 0 0 0 0 0 0 0 0 0 0 0 0 0 0 0 0 0 0 0 0 0 0 0 0 0 0 0 0 0 0 0 0 0 0 0 0 0 0 0 0 0 0 0 0 

SCALARS geom_link_id_0 int 1
LOOKUP_TABLE default
0 0 0 0 0 0 0 0 0 0 0 0 0 0 0 0 0 0 0 0 0 0 0 0 0 0 0 0 0 0 0 0 0 0 0 0 0 0 0 0 0 0 0 0 0 0 0 0 0 0 0 0 0 0 0 0 0 0 0 0 0 0 0 0 0 0 0 0 0 0 0 0 0 0 0 0 0 0 0 0 

