# vtk DataFile Version 3.0
Generated by GMDS VTK Writer

ASCII
DATASET UNSTRUCTURED_GRID
POINTS 36 float
-5 -5 -5
-5 5 -5
5 5 -5
5 -5 -5
-5 -5 5
-5 5 5
5 5 5
5 -5 5
-5 -1 -5
-5 -1 5
5 -1 5
5 -1 -5
-5 -5 -1
5 -5 -1
5 -1 -1
-5 -1 -1
5 5 -1
-5 5 -1
-1 -5 -5
-1 -1 -5
-1 -1 -1
-1 -5 -1
-1 -1 5
-1 -5 5
-1 5 -5
-1 5 -1
-1 5 5
-5 -5 1
-5 -1 1
-1 -1 1
-1 -5 1
5 -1 1
5 -5 1
-5 5 1
-1 5 1
5 5 1

CELLS 12 108
8 30 29 31 32 21 20 14 13 
8 18 19 20 21 3 11 14 13 
8 0 8 15 12 18 19 20 21 
8 23 22 10 7 30 29 31 32 
8 27 28 29 30 12 15 20 21 
8 4 9 22 23 27 28 29 30 
8 1 8 15 17 24 19 20 25 
8 24 19 20 25 2 11 14 16 
8 5 9 22 26 33 28 29 34 
8 33 28 29 34 17 15 20 25 
8 26 22 10 6 34 29 31 35 
8 34 29 31 35 25 20 14 16 

CELL_TYPES 12
12 
12 
12 
12 
12 
12 
12 
12 
12 
12 
12 
12 
POINT_DATA 36
SCALARS GMDS_ID int 1
LOOKUP_TABLE default
0 1 2 3 4 5 6 7 8 9 10 11 12 13 14 15 16 17 18 19 20 21 22 23 24 25 26 27 28 29 30 31 32 33 34 35 
SCALARS geom_link_dim_0 int 1
LOOKUP_TABLE default
0 0 0 0 0 0 0 0 0 0 0 0 0 0 0 0 0 0 0 0 0 0 0 0 0 0 0 0 0 0 0 0 0 0 0 0 
SCALARS geom_link_id_0 int 1
LOOKUP_TABLE default
0 0 0 0 0 0 0 0 0 0 0 0 0 0 0 0 0 0 0 0 0 0 0 0 0 0 0 0 0 0 0 0 0 0 0 0 


CELL_DATA 12
SCALARS GMDS_ID int 1
LOOKUP_TABLE default
0 1 2 3 4 5 8 9 12 13 14 15 

SCALARS geom_link_dim_0 int 1
LOOKUP_TABLE default
0 0 0 0 0 0 0 0 0 0 0 0 

SCALARS geom_link_id_0 int 1
LOOKUP_TABLE default
0 0 0 0 0 0 0 0 0 0 0 0 

