# vtk DataFile Version 3.0
Generated by GMDS VTK Writer

ASCII
DATASET UNSTRUCTURED_GRID
POINTS 216 float
-5 -5 -5
-5 5 -5
5 5 -5
5 -5 -5
-5 -5 5
-5 5 5
5 5 5
5 -5 5
4 -5 -5
4 5 -5
4 5 5
4 -5 5
-5 1 -5
-5 1 5
4 1 5
4 1 -5
5 1 5
5 1 -5
-5 -5 -1
4 -5 -1
4 1 -1
-5 1 -1
4 5 -1
-5 5 -1
5 -5 -1
5 1 -1
5 5 -1
-5 3 -1
4 3 -1
4 3 5
-5 3 5
-5 3 -5
4 3 -5
5 3 -5
5 3 -1
5 3 5
-1 -5 -5
-1 1 -5
-1 1 -1
-1 -5 -1
-1 3 5
-1 3 -1
-1 5 -1
-1 5 5
-1 1 5
-1 -5 5
-1 3 -5
-1 5 -5
5 -5 3
4 -5 3
4 1 3
5 1 3
5 3 3
4 3 3
5 5 3
4 5 3
-5 5 3
-5 3 3
-1 3 3
-1 5 3
-5 1 3
-1 1 3
-5 -5 3
-1 -5 3
4 1 1
5 1 1
5 3 1
4 3 1
5 -5 0.999999999999999
4 -5 1
5 5 0.999999999999999
4 5 1
-5 5 1
-5 3 1
-1 3 1
-1 5 1
-5 1 1
-1 1 1
-5 -5 0.999999999999999
-1 -5 0.999999999999999
-1 -1 -5
-1 -1 -1
4 -1 -1
4 -1 -5
-5 -0.999999999999999 -5
-5 -1 -1
5 -1 -5
5 -1 -1
5 -1 5
4 -1 5
4 -1 3
5 -1 3
5 -1 1
4 -1 1
-5 -1 5
-1 -1 5
-1 -1 3
-5 -1 3
-1 -1 1
-5 -1 1
1 1 -5
1 1 -1
1 3 -1
1 3 -5
1 1 5
1 3 5
1 3 3
1 1 3
1 3 1
1 5 1
1 5 -1
1 5 3
1 5 -5
1 1 1
1 5 5
1 -1 -5
1 -1 -1
0.999999999999999 -5 -5
1 -5 -1
1 -5 5
1 -5 3
1 -1 3
1 -1 5
1 -5 1
1 -1 1
3 1 -5
3 1 -1
3 3 -1
3 3 -5
3 1 5
3 3 5
3 3 3
3 1 3
3 3 1
3 5 1
3 5 -1
3 5 3
3 5 -5
3 1 1
3 5 5
3 -1 -5
3 -1 -1
3 -5 -5
3 -5 -1
3 -5 5
3 -5 3
3 -1 3
3 -1 5
3 -5 1
3 -1 1
4 4 5
5 4 5
5 4 3
4 4 3
1 4 -1
1 4 1
-1 4 1
-1 4 -1
4 4 -5
5 4 -5
5 4 -1
4 4 -1
1 4 5
1 4 3
-1 4 3
-1 4 5
5 4 0.999999999999999
4 4 1
-5 4 -1
-5 4 -5
-1 4 -5
3 4 3
3 4 1
-5 4 5
-5 4 3
3 4 -1
-5 4 1
3 4 5
1 4 -5
3 4 -5
5 -5 4
4 -5 4
4 -1 4
5 -1 4
-1 4 4
1 4 4
1 5 4
-1 5 4
-1 3 4
1 3 4
4 1 4
5 1 4
5 3 4
4 3 4
-5 1 4
-5 3 4
-1 1 4
1 1 4
3 1 4
3 3 4
-5 -5 4
-1 -5 4
-1 -1 4
-5 -1 4
1 -5 4
1 -1 4
4 4 4
5 4 4
5 5 4
4 5 4
3 -1 4
3 -5 4
-5 4 4
-5 5 4
3 4 4
3 5 4

CELLS 123 1107
8 27 31 46 41 168 169 170 157 
8 200 201 202 203 62 63 96 97 
8 68 69 19 24 92 93 82 87 
8 190 193 199 198 50 53 131 132 
8 14 29 130 129 190 193 199 198 
8 184 185 186 187 164 163 111 59 
8 50 53 67 64 132 131 133 138 
8 113 108 102 101 77 74 41 38 
8 152 153 167 166 54 55 71 70 
8 15 17 25 20 32 33 34 28 
8 183 182 190 191 91 90 50 51 
8 14 16 35 29 190 191 192 193 
8 190 191 192 193 50 51 52 53 
8 7 11 89 88 180 181 182 183 
8 168 169 170 157 23 1 47 42 
8 64 65 66 67 20 25 34 28 
8 50 51 52 53 64 65 66 67 
8 12 21 27 31 37 38 41 46 
8 188 189 185 184 58 106 163 164 
8 198 199 189 197 132 131 106 107 
8 138 133 127 126 113 108 102 101 
8 104 105 40 44 197 189 188 196 
8 86 83 82 87 17 15 20 25 
8 180 181 182 183 48 49 90 91 
8 3 8 19 24 86 83 82 87 
8 84 85 81 80 12 21 38 37 
8 40 105 162 165 188 189 185 184 
8 0 18 39 36 84 85 81 80 
8 4 45 95 94 200 201 202 203 
8 129 130 105 104 198 199 189 197 
8 131 133 108 106 171 172 155 163 
8 197 189 188 196 107 106 58 61 
8 132 131 133 138 107 106 108 113 
8 60 57 58 61 76 73 74 77 
8 76 73 74 77 21 27 41 38 
8 165 162 114 43 184 185 186 187 
8 64 67 28 20 138 133 127 126 
8 171 172 155 163 136 134 109 111 
8 100 101 102 103 37 38 41 46 
8 53 67 133 131 153 167 172 171 
8 92 93 82 87 65 64 20 25 
8 48 49 69 68 91 90 93 92 
8 91 90 93 92 51 50 64 65 
8 194 195 188 196 60 57 58 61 
8 13 30 40 44 194 195 188 196 
8 62 63 79 78 97 96 98 99 
8 97 96 98 99 60 61 77 76 
8 78 79 39 18 99 98 81 85 
8 99 98 81 85 76 77 38 21 
8 125 126 127 128 100 101 102 103 
8 15 20 28 32 125 126 127 128 
8 52 53 67 66 152 153 167 166 
8 107 106 108 113 61 58 74 77 
8 166 167 161 160 70 71 22 26 
8 88 89 14 16 183 182 190 191 
8 66 67 28 34 166 167 161 160 
8 115 116 101 100 80 81 38 37 
8 117 118 116 115 36 39 81 80 
8 158 159 160 161 9 2 26 22 
8 32 33 34 28 158 159 160 161 
8 118 123 124 116 39 79 98 81 
8 154 155 156 157 110 109 75 42 
8 102 108 74 41 154 155 156 157 
8 120 123 124 121 63 79 98 96 
8 121 124 113 107 96 98 77 61 
8 83 82 20 15 140 141 126 125 
8 140 141 126 125 115 116 101 100 
8 8 19 82 83 142 143 141 140 
8 142 143 141 140 117 118 116 115 
8 19 69 93 82 143 148 149 141 
8 143 148 149 141 118 123 124 116 
8 82 93 64 20 141 149 138 126 
8 141 149 138 126 116 124 113 101 
8 49 69 93 90 145 148 149 146 
8 145 148 149 146 120 123 124 121 
8 90 93 64 50 146 149 138 132 
8 146 149 138 132 121 124 113 107 
8 153 167 172 171 55 71 134 136 
8 127 133 108 102 175 172 155 154 
8 175 172 155 154 135 134 109 110 
8 28 67 133 127 161 167 172 175 
8 161 167 172 175 22 71 134 135 
8 57 58 74 73 174 164 156 176 
8 174 164 156 176 56 59 75 72 
8 73 74 41 27 176 156 157 168 
8 176 156 157 168 72 75 42 23 
8 102 103 46 41 154 178 170 157 
8 154 178 170 157 110 112 47 42 
8 127 128 103 102 175 179 178 154 
8 175 179 178 154 135 137 112 110 
8 28 32 128 127 161 158 179 175 
8 161 158 179 175 22 9 137 135 
8 106 108 74 58 163 155 156 164 
8 163 155 156 164 111 109 75 59 
8 94 95 44 13 203 202 196 194 
8 203 202 196 194 97 96 61 60 
8 119 122 95 45 204 205 202 201 
8 204 205 202 201 120 121 96 63 
8 104 122 95 44 197 205 202 196 
8 197 205 202 196 107 121 96 61 
8 150 151 6 10 206 207 208 209 
8 206 207 208 209 153 152 54 55 
8 29 35 151 150 193 192 207 206 
8 193 192 207 206 53 52 152 153 
8 11 89 147 144 181 182 210 211 
8 181 182 210 211 49 90 146 145 
8 144 147 122 119 211 210 205 204 
8 211 210 205 204 145 146 121 120 
8 14 89 147 129 190 182 210 198 
8 190 182 210 198 50 90 146 132 
8 129 147 122 104 198 210 205 197 
8 198 210 205 197 132 146 121 107 
8 30 40 165 173 195 188 184 212 
8 195 188 184 212 57 58 164 174 
8 173 165 43 5 212 184 187 213 
8 212 184 187 213 174 164 59 56 
8 105 130 177 162 189 199 214 185 
8 189 199 214 185 106 131 171 163 
8 162 177 139 114 185 214 215 186 
8 185 214 215 186 163 171 136 111 
8 29 130 177 150 193 199 214 206 
8 150 177 139 10 206 214 215 209 
8 206 214 215 209 153 171 136 55 

CELL_TYPES 123
12 
12 
12 
12 
12 
12 
12 
12 
12 
12 
12 
12 
12 
12 
12 
12 
12 
12 
12 
12 
12 
12 
12 
12 
12 
12 
12 
12 
12 
12 
12 
12 
12 
12 
12 
12 
12 
12 
12 
12 
12 
12 
12 
12 
12 
12 
12 
12 
12 
12 
12 
12 
12 
12 
12 
12 
12 
12 
12 
12 
12 
12 
12 
12 
12 
12 
12 
12 
12 
12 
12 
12 
12 
12 
12 
12 
12 
12 
12 
12 
12 
12 
12 
12 
12 
12 
12 
12 
12 
12 
12 
12 
12 
12 
12 
12 
12 
12 
12 
12 
12 
12 
12 
12 
12 
12 
12 
12 
12 
12 
12 
12 
12 
12 
12 
12 
12 
12 
12 
12 
12 
12 
12 
POINT_DATA 216
SCALARS GMDS_ID int 1
LOOKUP_TABLE default
0 1 2 3 4 5 6 7 8 9 10 11 12 13 14 15 16 17 18 19 20 21 22 23 24 25 26 27 28 29 30 31 32 33 34 35 36 37 38 39 40 41 42 43 44 45 46 47 48 49 50 51 52 53 54 55 56 57 58 59 60 61 62 63 64 65 66 67 68 69 70 71 72 73 74 75 76 77 78 79 80 81 82 83 84 85 86 87 88 89 90 91 92 93 94 95 96 97 98 99 100 101 102 103 104 105 106 107 108 109 110 111 112 113 114 115 116 117 118 119 120 121 122 123 124 125 126 127 128 129 130 131 132 133 134 135 136 137 138 139 140 141 142 143 144 145 146 147 148 149 150 151 152 153 154 155 156 157 158 159 160 161 162 163 164 165 166 167 168 169 170 171 172 173 174 175 176 177 178 179 180 181 182 183 184 185 186 187 188 189 190 191 192 193 194 195 196 197 198 199 200 201 202 203 204 205 206 207 208 209 210 211 212 213 214 215 
SCALARS geom_link_dim_0 int 1
LOOKUP_TABLE default
0 0 0 0 0 0 0 0 0 0 0 0 0 0 0 0 0 0 0 0 0 0 0 0 0 0 0 0 0 0 0 0 0 0 0 0 0 0 0 0 0 0 0 0 0 0 0 0 0 0 0 0 0 0 0 0 0 0 0 0 0 0 0 0 0 0 0 0 0 0 0 0 0 0 0 0 0 0 0 0 0 0 0 0 0 0 0 0 0 0 0 0 0 0 0 0 0 0 0 0 0 0 0 0 0 0 0 0 0 0 0 0 0 0 0 0 0 0 0 0 0 0 0 0 0 0 0 0 0 0 0 0 0 0 0 0 0 0 0 0 0 0 0 0 0 0 0 0 0 0 0 0 0 0 0 0 0 0 0 0 0 0 0 0 0 0 0 0 0 0 0 0 0 0 0 0 0 0 0 0 0 0 0 0 0 0 0 0 0 0 0 0 0 0 0 0 0 0 0 0 0 0 0 0 0 0 0 0 0 0 0 0 0 0 0 0 
SCALARS geom_link_id_0 int 1
LOOKUP_TABLE default
0 0 0 0 0 0 0 0 0 0 0 0 0 0 0 0 0 0 0 0 0 0 0 0 0 0 0 0 0 0 0 0 0 0 0 0 0 0 0 0 0 0 0 0 0 0 0 0 0 0 0 0 0 0 0 0 0 0 0 0 0 0 0 0 0 0 0 0 0 0 0 0 0 0 0 0 0 0 0 0 0 0 0 0 0 0 0 0 0 0 0 0 0 0 0 0 0 0 0 0 0 0 0 0 0 0 0 0 0 0 0 0 0 0 0 0 0 0 0 0 0 0 0 0 0 0 0 0 0 0 0 0 0 0 0 0 0 0 0 0 0 0 0 0 0 0 0 0 0 0 0 0 0 0 0 0 0 0 0 0 0 0 0 0 0 0 0 0 0 0 0 0 0 0 0 0 0 0 0 0 0 0 0 0 0 0 0 0 0 0 0 0 0 0 0 0 0 0 0 0 0 0 0 0 0 0 0 0 0 0 0 0 0 0 0 0 


CELL_DATA 123
SCALARS GMDS_ID int 1
LOOKUP_TABLE default
0 4 5 6 7 8 9 10 11 12 13 14 15 16 17 18 19 20 21 22 23 24 25 26 27 29 30 31 32 33 34 35 36 37 38 39 40 42 43 44 45 46 47 50 51 52 53 54 55 56 57 60 61 62 63 64 65 67 70 72 73 74 76 77 79 80 81 82 83 88 89 90 91 92 93 94 95 96 99 100 101 102 103 104 105 106 111 112 113 114 115 116 117 118 119 120 121 122 123 124 125 126 127 128 129 130 131 132 133 134 135 136 137 138 139 140 141 142 143 144 145 147 148 

SCALARS geom_link_dim_0 int 1
LOOKUP_TABLE default
0 0 0 0 0 0 0 0 0 0 0 0 0 0 0 0 0 0 0 0 0 0 0 0 0 0 0 0 0 0 0 0 0 0 0 0 0 0 0 0 0 0 0 0 0 0 0 0 0 0 0 0 0 0 0 0 0 0 0 0 0 0 0 0 0 0 0 0 0 0 0 0 0 0 0 0 0 0 0 0 0 0 0 0 0 0 0 0 0 0 0 0 0 0 0 0 0 0 0 0 0 0 0 0 0 0 0 0 0 0 0 0 0 0 0 0 0 0 0 0 0 0 0 

SCALARS geom_link_id_0 int 1
LOOKUP_TABLE default
0 0 0 0 0 0 0 0 0 0 0 0 0 0 0 0 0 0 0 0 0 0 0 0 0 0 0 0 0 0 0 0 0 0 0 0 0 0 0 0 0 0 0 0 0 0 0 0 0 0 0 0 0 0 0 0 0 0 0 0 0 0 0 0 0 0 0 0 0 0 0 0 0 0 0 0 0 0 0 0 0 0 0 0 0 0 0 0 0 0 0 0 0 0 0 0 0 0 0 0 0 0 0 0 0 0 0 0 0 0 0 0 0 0 0 0 0 0 0 0 0 0 0 

