# vtk DataFile Version 3.0
Generated by GMDS VTK Writer

ASCII
DATASET UNSTRUCTURED_GRID
POINTS 80 float
-5 -5 -5
-5 5 -5
5 5 -5
5 -5 -5
-5 -5 5
-5 5 5
5 5 5
5 -5 5
-5 -1 -5
-5 -1 5
5 -1 5
5 -1 -5
-5 -5 -1
5 -5 -1
5 -1 -1
-5 -1 -1
5 5 -1
-5 5 -1
-1 -5 -5
-1 -1 -5
-1 -1 -1
-1 -5 -1
-1 -1 5
-1 -5 5
-1 5 -5
-1 5 -1
-1 5 5
-5 -5 1
-5 -1 1
-1 -1 1
-1 -5 1
5 -1 1
5 -5 1
-5 5 1
-1 5 1
5 5 1
5 0.999999999999999 1
-1 0.999999999999999 1
-1 1 -1
5 0.999999999999999 -1
-1 0.999999999999999 -5
5 0.999999999999999 -5
5 0.999999999999999 5
-1 0.999999999999999 5
-5 1 -5
-5 1 -1
-5 0.999999999999999 1
-5 0.999999999999999 5
1 -1 1
1 -5 1
1 -5 -1
1 -1 -1
1 -1 5
1 -5 5
1 0.999999999999999 -5
1 1 -1
1 5 -1
1 5 -5
1 -1 -5
0.999999999999999 -5 -5
1 1 1
1 5 1
1 0.999999999999999 5
1 5 5
-5 3 -5
-5 3 -1
-1 3 -1
-1 3 -5
-5 3 5
-1 3 5
-1 3 1
-5 3 1
1 3 -1
1 3 -5
5 3 -1
5 3 -5
1 3 1
5 3 1
1 3 5
5 3 5

CELLS 36 324
8 57 56 16 2 73 72 74 75 
8 33 34 25 17 71 70 66 65 
8 0 8 15 12 18 19 20 21 
8 67 66 72 73 40 38 55 54 
8 27 28 29 30 12 15 20 21 
8 4 9 22 23 27 28 29 30 
8 24 25 56 57 67 66 72 73 
8 71 70 66 65 46 37 38 45 
8 22 23 30 29 52 53 49 48 
8 68 69 70 71 47 43 37 46 
8 5 26 34 33 68 69 70 71 
8 29 30 21 20 48 49 50 51 
8 48 49 50 51 31 32 13 14 
8 52 53 49 48 10 7 32 31 
8 64 65 66 67 44 45 38 40 
8 1 17 25 24 64 65 66 67 
8 8 15 20 19 44 45 38 40 
8 28 29 20 15 46 37 38 45 
8 9 22 29 28 47 43 37 46 
8 19 20 38 40 58 51 55 54 
8 58 51 55 54 11 14 39 41 
8 18 19 20 21 59 58 51 50 
8 59 58 51 50 3 11 14 13 
8 20 29 37 38 51 48 60 55 
8 51 48 60 55 14 31 36 39 
8 22 29 37 43 52 48 60 62 
8 52 48 60 62 10 31 36 42 
8 73 72 74 75 54 55 39 41 
8 25 34 61 56 66 70 76 72 
8 66 70 76 72 38 37 60 55 
8 56 61 35 16 72 76 77 74 
8 72 76 77 74 55 60 36 39 
8 26 34 61 63 69 70 76 78 
8 69 70 76 78 43 37 60 62 
8 63 61 35 6 78 76 77 79 
8 78 76 77 79 62 60 36 42 

CELL_TYPES 36
12 
12 
12 
12 
12 
12 
12 
12 
12 
12 
12 
12 
12 
12 
12 
12 
12 
12 
12 
12 
12 
12 
12 
12 
12 
12 
12 
12 
12 
12 
12 
12 
12 
12 
12 
12 
POINT_DATA 80
SCALARS GMDS_ID int 1
LOOKUP_TABLE default
0 1 2 3 4 5 6 7 8 9 10 11 12 13 14 15 16 17 18 19 20 21 22 23 24 25 26 27 28 29 30 31 32 33 34 35 36 37 38 39 40 41 42 43 44 45 46 47 48 49 50 51 52 53 54 55 56 57 58 59 60 61 62 63 64 65 66 67 68 69 70 71 72 73 74 75 76 77 78 79 
SCALARS geom_link_dim int 1
LOOKUP_TABLE default
1 1 1 1 1 1 1 1 2 2 2 2 2 2 3 3 2 2 2 3 0 3 3 2 2 3 2 2 3 0 3 3 2 2 3 2 3 0 0 3 3 2 2 3 2 3 3 2 0 3 3 0 3 2 3 0 3 2 3 2 0 3 3 2 2 3 0 3 2 3 0 3 0 3 3 2 0 3 3 2 
SCALARS geom_link_id int 1
LOOKUP_TABLE default
18 20 24 21 17 19 23 22 32 33 24 34 31 29 12 17 25 28 30 13 0 18 10 35 36 11 23 31 17 0 18 12 29 28 11 25 12 0 0 12 13 34 24 10 32 17 17 33 0 18 18 0 10 35 13 0 11 36 13 30 0 11 10 23 32 17 -1 13 33 10 -1 17 -1 13 12 34 -1 12 10 24 


CELL_DATA 36
SCALARS GMDS_ID int 1
LOOKUP_TABLE default
0 1 2 3 4 5 6 7 8 10 11 12 13 14 16 17 18 20 22 24 25 26 27 30 31 32 33 36 37 38 39 40 41 42 43 44 

SCALARS is_in int 1
LOOKUP_TABLE default
1 1 1 1 1 1 1 1 1 1 1 1 1 1 1 1 1 1 1 1 1 1 1 0 1 1 1 1 1 1 1 1 1 1 0 1 

SCALARS geom_link_dim int 1
LOOKUP_TABLE default
0 0 0 0 0 0 0 0 0 0 0 0 0 0 0 0 0 0 0 0 0 0 0 0 0 0 0 0 0 0 0 0 0 0 0 0 

SCALARS geom_link_id int 1
LOOKUP_TABLE default
-1 -1 0 -1 0 0 -1 -1 0 -1 -1 0 0 0 -1 -1 0 0 0 0 0 0 0 0 0 0 0 -1 -1 -1 -1 -1 -1 -1 -1 -1 

