# vtk DataFile Version 3.0
Generated by GMDS VTK Writer

ASCII
DATASET UNSTRUCTURED_GRID
POINTS 60 float
-5 -5 -5
-5 5 -5
5 5 -5
5 -5 -5
-5 -5 5
-5 5 5
5 5 5
5 -5 5
1 -5 -5
1 5 -5
1 5 5
1 -5 5
-5 4 -5
-5 4 5
1 4 5
1 4 -5
5 4 5
5 4 -5
-5 5 -1
1 5 -1
1 4 -1
-5 4 -1
1 -5 -1
-5 -5 -1
5 5 -1
5 4 -1
5 -5 -1
-5 -1 -5
1 -1 -5
1 -1 -1
-5 -1 -1
1 -1 5
-5 -1 5
5 -1 -5
5 -1 -1
5 -1 5
-0.999999999999999 -1 5
-1 -1 -1
-1 4 -1
-1 4 5
-0.999999999999999 5 -1
-0.999999999999999 5 5
-0.999999999999999 -5 5
-1 -5 -1
-0.999999999999999 5 -5
-1 4 -5
-1 -1 -5
-1 -5 -5
4 5 -5
4 4 -5
4 4 -1
4 5 -1
4 4 5
4 5 5
4 -5 -5
4 -5 -1
4 -1 -1
4 -1 -5
4 -5 5
4 -1 5

CELLS 24 216
8 54 55 56 57 8 22 29 28 
8 3 26 34 33 54 55 56 57 
8 24 25 16 6 51 50 52 53 
8 51 50 52 53 19 20 14 10 
8 48 49 50 51 9 15 20 19 
8 2 17 25 24 48 49 50 51 
8 40 38 39 41 18 21 13 5 
8 19 20 14 10 40 38 39 41 
8 36 37 38 39 32 30 21 13 
8 31 29 20 14 36 37 38 39 
8 11 22 29 31 42 43 37 36 
8 42 43 37 36 4 23 30 32 
8 9 15 20 19 44 45 38 40 
8 44 45 38 40 1 12 21 18 
8 28 29 20 15 46 37 38 45 
8 46 37 38 45 27 30 21 12 
8 8 22 29 28 47 43 37 46 
8 47 43 37 46 0 23 30 27 
8 33 34 25 17 57 56 50 49 
8 57 56 50 49 28 29 20 15 
8 7 26 34 35 58 55 56 59 
8 58 55 56 59 11 22 29 31 
8 35 34 25 16 59 56 50 52 
8 59 56 50 52 31 29 20 14 

CELL_TYPES 24
12 
12 
12 
12 
12 
12 
12 
12 
12 
12 
12 
12 
12 
12 
12 
12 
12 
12 
12 
12 
12 
12 
12 
12 
POINT_DATA 60
SCALARS GMDS_ID int 1
LOOKUP_TABLE default
0 1 2 3 4 5 6 7 8 9 10 11 12 13 14 15 16 17 18 19 20 21 22 23 24 25 26 27 28 29 30 31 32 33 34 35 36 37 38 39 40 41 42 43 44 45 46 47 48 49 50 51 52 53 54 55 56 57 58 59 
SCALARS geom_link_dim_0 int 1
LOOKUP_TABLE default
0 0 0 0 0 0 0 0 0 0 0 0 0 0 0 0 0 0 0 0 0 0 0 0 0 0 0 0 0 0 0 0 0 0 0 0 0 0 0 0 0 0 0 0 0 0 0 0 0 0 0 0 0 0 0 0 0 0 0 0 
SCALARS geom_link_id_0 int 1
LOOKUP_TABLE default
0 0 0 0 0 0 0 0 0 0 0 0 0 0 0 0 0 0 0 0 0 0 0 0 0 0 0 0 0 0 0 0 0 0 0 0 0 0 0 0 0 0 0 0 0 0 0 0 0 0 0 0 0 0 0 0 0 0 0 0 


CELL_DATA 24
SCALARS GMDS_ID int 1
LOOKUP_TABLE default
0 1 2 3 4 5 6 7 10 11 16 17 18 19 20 21 22 23 24 25 26 27 28 29 

SCALARS geom_link_dim_0 int 1
LOOKUP_TABLE default
0 0 0 0 0 0 0 0 0 0 0 0 0 0 0 0 0 0 0 0 0 0 0 0 

SCALARS geom_link_id_0 int 1
LOOKUP_TABLE default
0 0 0 0 0 0 0 0 0 0 0 0 0 0 0 0 0 0 0 0 0 0 0 0 

