# vtk DataFile Version 3.0
Generated by GMDS VTK Writer

ASCII
DATASET UNSTRUCTURED_GRID
POINTS 216 float
-5 -5 -5
-5 5 -5
5 5 -5
5 -5 -5
-5 -5 5
-5 5 5
5 5 5
5 -5 5
-5 -1 -5
-5 -1 5
5 -1 5
5 -1 -5
-5 -5 -1
5 -5 -1
5 -1 -1
-5 -1 -1
5 5 -1
-5 5 -1
-1 -5 -5
-1 -1 -5
-1 -1 -1
-1 -5 -1
-1 -1 5
-1 -5 5
-1 5 -5
-1 5 -1
-1 5 5
-5 -5 1
-5 -1 1
-1 -1 1
-1 -5 1
5 -1 1
5 -5 1
-5 5 1
-1 5 1
5 5 1
5 0.999999999999999 1
-1 1 1
-1 1 -1
5 0.999999999999999 -1
-1 0.999999999999999 -5
5 0.999999999999999 -5
5 0.999999999999999 5
-1 0.999999999999999 5
-5 1 -5
-5 1 -1
-5 0.999999999999999 1
-5 0.999999999999999 5
1 -1 1
1 -5 1
1 -5 -1
1 -1 -1
1 -1 5
1 -5 5
1 0.999999999999999 -5
1 1 -1
1 5 -1
1 5 -5
1 -1 -5
0.999999999999999 -5 -5
1 1 1
1 5 1
1 0.999999999999999 5
1 5 5
-5 -5 3
-5 -1 3
-1 -1 3
-1 -5 3
1 -1 3
1 -5 3
5 -5 3
5 -1 3
-1 1 3
-5 0.999999999999999 3
-1 5 3
-5 5 3
1 1 3
5 0.999999999999999 3
1 5 3
5 5 3
3 -1 -5
3 -1 -1
3 1 -1
3 0.999999999999999 -5
3 -5 -5
3 -5 -1
3 1 1
3 5 1
3 5 -1
3 -1 1
3 -5 3
3 -1 3
3 -5 1
3 -5 5
3 -1 5
3 5 -5
3 0.999999999999999 5
3 0.999999999999999 3
3 5 5
3 5 3
-1 4 5
-5 4 5
-5 4 3
-1 4 3
-1 4 -1
-1 4 -5
1 4 -5
1 4 -1
3 4 1
3 4 -1
1 4 1
5 4 1
5 4 -1
-5 4 -5
-5 4 -1
-5 4 1
-1 4 1
3 4 -5
5 4 -5
1 4 5
1 4 3
5 4 5
5 4 3
3 4 3
3 4 5
-1 3 5
-5 3 5
-5 3 3
-1 3 3
-1 3 -1
-1 3 -5
1 3 -5
1 3 -1
3 3 1
3 3 -1
1 3 1
5 3 1
5 3 -1
-5 3 -5
-5 3 -1
-5 3 1
-1 3 1
3 3 -5
5 3 -5
1 3 5
1 3 3
5 3 5
5 3 3
3 3 3
3 3 5
4 -1 -5
4 -1 -1
4 1 -1
4 0.999999999999999 -5
4 -5 -5
4 -5 -1
4 -1 1
4 1 1
4 4 1
4 4 -1
4 5 -1
4 5 1
4 -5 3
4 -1 3
4 -5 1
4 -5 5
4 -1 5
4 3 1
4 3 -1
4 0.999999999999999 5
4 0.999999999999999 3
4 4 -5
4 5 -5
4 4 5
4 4 3
4 5 3
4 5 5
4 3 -5
4 3 3
4 3 5
-5 -5 4
-5 -1 4
-1 -1 4
-1 -5 4
5 -5 4
5 -1 4
4 -1 4
4 -5 4
1 -5 4
1 -1 4
-1 0.999999999999999 4
-5 0.999999999999999 4
-1 4 4
-5 4 4
-5 5 4
-1 5 4
3 -5 4
3 -1 4
3 0.999999999999999 4
1 0.999999999999999 4
-1 3 4
-5 3 4
1 4 4
1 5 4
3 4 4
3 5 4
1 3 4
3 3 4
5 0.999999999999999 4
4 0.999999999999999 4
5 5 4
5 4 4
4 4 4
4 5 4
5 3 4
4 3 4

CELLS 113 1017
8 104 105 106 107 25 24 57 56 
8 0 8 15 12 18 19 20 21 
8 125 126 101 100 200 201 193 192 
8 27 28 29 30 12 15 20 21 
8 81 89 86 82 51 48 60 55 
8 181 182 190 191 65 66 72 73 
8 65 66 72 73 28 29 37 46 
8 11 14 39 41 150 151 152 153 
8 134 142 131 132 109 117 106 107 
8 66 67 69 68 29 30 49 48 
8 29 30 21 20 48 49 50 51 
8 108 109 107 110 87 88 56 61 
8 192 202 203 195 103 120 78 74 
8 136 137 112 111 167 168 159 158 
8 100 119 63 26 192 202 203 195 
8 164 156 151 155 92 89 81 85 
8 8 15 20 19 44 45 38 40 
8 37 38 55 60 141 129 132 135 
8 28 29 20 15 46 37 38 45 
8 140 141 129 139 115 116 104 114 
8 141 129 132 135 116 104 107 110 
8 84 80 81 85 59 58 51 50 
8 19 20 38 40 58 51 55 54 
8 115 116 104 114 33 34 25 17 
8 18 19 20 21 59 58 51 50 
8 46 37 38 45 140 141 129 139 
8 113 114 104 105 1 17 25 24 
8 64 65 66 67 27 28 29 30 
8 32 31 14 13 164 156 151 155 
8 119 124 98 63 202 204 205 203 
8 80 81 82 83 58 51 55 54 
8 202 204 205 203 120 123 99 78 
8 167 168 159 158 133 134 109 108 
8 197 198 199 189 91 97 76 68 
8 133 134 132 135 108 109 107 110 
8 36 39 137 136 157 152 168 167 
8 190 191 201 200 72 73 127 128 
8 150 151 152 153 80 81 82 83 
8 43 47 126 125 190 191 201 200 
8 200 201 193 192 128 127 102 103 
8 92 89 81 85 49 48 51 50 
8 44 45 38 40 138 139 129 130 
8 138 139 129 130 113 114 104 105 
8 94 96 62 52 197 198 199 189 
8 196 197 189 188 90 91 68 69 
8 91 97 86 89 68 76 60 48 
8 86 82 55 60 133 134 132 135 
8 129 130 131 132 104 105 106 107 
8 38 40 54 55 129 130 131 132 
8 116 104 107 110 34 25 56 61 
8 162 163 156 164 90 91 89 92 
8 109 117 106 107 88 95 57 56 
8 70 71 31 32 162 163 156 164 
8 93 94 52 53 196 197 189 188 
8 158 159 160 161 108 109 88 87 
8 103 102 115 116 74 75 33 34 
8 111 112 16 35 158 159 160 161 
8 151 156 157 152 81 89 86 82 
8 103 120 110 116 74 78 61 34 
8 14 31 36 39 151 156 157 152 
8 192 193 194 195 103 102 75 74 
8 154 150 151 155 84 80 81 85 
8 3 11 14 13 154 150 151 155 
8 100 101 5 26 192 193 194 195 
8 108 123 120 110 87 99 78 61 
8 9 22 43 47 181 182 190 191 
8 72 73 46 37 128 127 140 141 
8 128 127 140 141 103 102 115 116 
8 4 9 22 23 180 181 182 183 
8 72 76 60 37 128 145 135 141 
8 128 145 135 141 103 120 110 116 
8 182 183 188 189 66 67 69 68 
8 22 23 53 52 182 183 188 189 
8 184 185 186 187 70 71 163 162 
8 7 10 166 165 184 185 186 187 
8 157 152 168 167 86 82 134 133 
8 71 77 36 31 163 170 157 156 
8 163 170 157 156 91 97 86 89 
8 112 118 2 16 159 171 172 160 
8 159 171 172 160 109 117 95 88 
8 111 122 79 35 158 174 175 161 
8 158 174 175 161 108 123 99 87 
8 39 41 143 137 152 153 177 168 
8 152 153 177 168 82 83 142 134 
8 137 143 118 112 168 177 171 159 
8 168 177 171 159 134 142 117 109 
8 180 181 182 183 64 65 66 67 
8 36 77 147 136 157 170 178 167 
8 157 170 178 167 86 97 148 133 
8 136 147 122 111 167 178 174 158 
8 167 178 174 158 133 148 123 108 
8 125 144 119 100 200 206 202 192 
8 200 206 202 192 128 145 120 103 
8 62 96 149 144 199 198 207 206 
8 199 198 207 206 76 97 148 145 
8 144 149 124 119 206 207 204 202 
8 206 207 204 202 145 148 123 120 
8 165 166 94 93 187 186 197 196 
8 187 186 197 196 162 163 91 90 
8 10 42 169 166 185 208 209 186 
8 185 208 209 186 71 77 170 163 
8 166 169 96 94 186 209 198 197 
8 186 209 198 197 163 170 97 91 
8 6 121 173 176 210 211 212 213 
8 210 211 212 213 79 122 174 175 
8 176 173 124 98 213 212 204 205 
8 213 212 204 205 175 174 123 99 
8 42 146 179 169 208 214 215 209 
8 208 214 215 209 77 147 178 170 
8 169 179 149 96 209 215 207 198 
8 209 215 207 198 170 178 148 97 
8 121 146 179 173 211 214 215 212 
8 211 214 215 212 122 147 178 174 

CELL_TYPES 113
12 
12 
12 
12 
12 
12 
12 
12 
12 
12 
12 
12 
12 
12 
12 
12 
12 
12 
12 
12 
12 
12 
12 
12 
12 
12 
12 
12 
12 
12 
12 
12 
12 
12 
12 
12 
12 
12 
12 
12 
12 
12 
12 
12 
12 
12 
12 
12 
12 
12 
12 
12 
12 
12 
12 
12 
12 
12 
12 
12 
12 
12 
12 
12 
12 
12 
12 
12 
12 
12 
12 
12 
12 
12 
12 
12 
12 
12 
12 
12 
12 
12 
12 
12 
12 
12 
12 
12 
12 
12 
12 
12 
12 
12 
12 
12 
12 
12 
12 
12 
12 
12 
12 
12 
12 
12 
12 
12 
12 
12 
12 
12 
12 
POINT_DATA 216
SCALARS GMDS_ID int 1
LOOKUP_TABLE default
0 1 2 3 4 5 6 7 8 9 10 11 12 13 14 15 16 17 18 19 20 21 22 23 24 25 26 27 28 29 30 31 32 33 34 35 36 37 38 39 40 41 42 43 44 45 46 47 48 49 50 51 52 53 54 55 56 57 58 59 60 61 62 63 64 65 66 67 68 69 70 71 72 73 74 75 76 77 78 79 80 81 82 83 84 85 86 87 88 89 90 91 92 93 94 95 96 97 98 99 100 101 102 103 104 105 106 107 108 109 110 111 112 113 114 115 116 117 118 119 120 121 122 123 124 125 126 127 128 129 130 131 132 133 134 135 136 137 138 139 140 141 142 143 144 145 146 147 148 149 150 151 152 153 154 155 156 157 158 159 160 161 162 163 164 165 166 167 168 169 170 171 172 173 174 175 176 177 178 179 180 181 182 183 184 185 186 187 188 189 190 191 192 193 194 195 196 197 198 199 200 201 202 203 204 205 206 207 208 209 210 211 212 213 214 215 
SCALARS geom_link_dim_0 int 1
LOOKUP_TABLE default
0 0 0 0 0 0 0 0 0 0 0 0 0 0 0 0 0 0 0 0 0 0 0 0 0 0 0 0 0 0 0 0 0 0 0 0 0 0 0 0 0 0 0 0 0 0 0 0 0 0 0 0 0 0 0 0 0 0 0 0 0 0 0 0 0 0 0 0 0 0 0 0 0 0 0 0 0 0 0 0 0 0 0 0 0 0 0 0 0 0 0 0 0 0 0 0 0 0 0 0 0 0 0 0 0 0 0 0 0 0 0 0 0 0 0 0 0 0 0 0 0 0 0 0 0 0 0 0 0 0 0 0 0 0 0 0 0 0 0 0 0 0 0 0 0 0 0 0 0 0 0 0 0 0 0 0 0 0 0 0 0 0 0 0 0 0 0 0 0 0 0 0 0 0 0 0 0 0 0 0 0 0 0 0 0 0 0 0 0 0 0 0 0 0 0 0 0 0 0 0 0 0 0 0 0 0 0 0 0 0 0 0 0 0 0 0 
SCALARS geom_link_id_0 int 1
LOOKUP_TABLE default
0 0 0 0 0 0 0 0 0 0 0 0 0 0 0 0 0 0 0 0 0 0 0 0 0 0 0 0 0 0 0 0 0 0 0 0 0 0 0 0 0 0 0 0 0 0 0 0 0 0 0 0 0 0 0 0 0 0 0 0 0 0 0 0 0 0 0 0 0 0 0 0 0 0 0 0 0 0 0 0 0 0 0 0 0 0 0 0 0 0 0 0 0 0 0 0 0 0 0 0 0 0 0 0 0 0 0 0 0 0 0 0 0 0 0 0 0 0 0 0 0 0 0 0 0 0 0 0 0 0 0 0 0 0 0 0 0 0 0 0 0 0 0 0 0 0 0 0 0 0 0 0 0 0 0 0 0 0 0 0 0 0 0 0 0 0 0 0 0 0 0 0 0 0 0 0 0 0 0 0 0 0 0 0 0 0 0 0 0 0 0 0 0 0 0 0 0 0 0 0 0 0 0 0 0 0 0 0 0 0 0 0 0 0 0 0 


CELL_DATA 113
SCALARS GMDS_ID int 1
LOOKUP_TABLE default
0 2 3 4 5 6 7 8 9 10 12 13 14 15 16 17 18 19 20 21 22 23 24 25 26 28 29 30 31 33 34 35 36 37 38 40 41 42 43 45 46 47 48 49 51 52 53 54 55 58 59 60 61 62 63 64 65 67 68 69 70 71 73 74 76 77 78 79 80 82 83 84 85 88 89 90 93 94 95 96 99 100 101 102 103 104 108 109 110 111 112 113 114 115 116 117 118 119 120 121 122 123 124 125 126 127 128 129 130 131 132 133 134 

SCALARS geom_link_dim_0 int 1
LOOKUP_TABLE default
0 0 0 0 0 0 0 0 0 0 0 0 0 0 0 0 0 0 0 0 0 0 0 0 0 0 0 0 0 0 0 0 0 0 0 0 0 0 0 0 0 0 0 0 0 0 0 0 0 0 0 0 0 0 0 0 0 0 0 0 0 0 0 0 0 0 0 0 0 0 0 0 0 0 0 0 0 0 0 0 0 0 0 0 0 0 0 0 0 0 0 0 0 0 0 0 0 0 0 0 0 0 0 0 0 0 0 0 0 0 0 0 0 

SCALARS geom_link_id_0 int 1
LOOKUP_TABLE default
0 0 0 0 0 0 0 0 0 0 0 0 0 0 0 0 0 0 0 0 0 0 0 0 0 0 0 0 0 0 0 0 0 0 0 0 0 0 0 0 0 0 0 0 0 0 0 0 0 0 0 0 0 0 0 0 0 0 0 0 0 0 0 0 0 0 0 0 0 0 0 0 0 0 0 0 0 0 0 0 0 0 0 0 0 0 0 0 0 0 0 0 0 0 0 0 0 0 0 0 0 0 0 0 0 0 0 0 0 0 0 0 0 

