# vtk DataFile Version 3.0
Generated by GMDS VTK Writer

ASCII
DATASET UNSTRUCTURED_GRID
POINTS 100 float
-5 -5 -5
-5 5 -5
5 5 -5
5 -5 -5
-5 -5 5
-5 5 5
5 5 5
5 -5 5
-5 1 -5
-5 1 5
5 1 5
5 1 -5
-5 -5 1
5 -5 1
5 1 1
-5 1 1
5 5 1
-5 5 1
-1 -5 -5
-1 1 -5
-1 1 1
-1 -5 1
-1 1 5
-1 -5 5
-1 5 -5
-1 5 1
-1 5 5
-1 4 -5
-1 4 1
5 4 1
5 4 -5
-5 4 -5
-5 4 1
-5 4 5
-1 4 5
5 4 5
-5 -5 4
-5 1 4
-1 1 4
-1 -5 4
5 1 4
5 -5 4
-1 4 4
-5 4 4
-1 5 4
-5 5 4
5 4 4
5 5 4
4 4 -5
4 4 1
4 5 1
4 5 -5
4 1 -5
4 1 1
4 -5 -5
4 -5 1
4 1 4
4 -5 4
4 1 5
4 -5 5
4 4 5
4 4 4
4 5 5
4 5 4
-1 -5 -1
-1 1 -1
4 1 -1
4 -5 -1
-5 -5 -1
-5 1 -1
4 4 -1
5 4 -1
5 1 -1
-1 4 -1
-5 4 -1
-1 5 -1
-5 5 -0.999999999999999
4 5 -1
5 5 -1
5 -5 -1
1 1 4
1 -5 4
1 -5 1
1 1 1
1 1 5
1 -5 5
1 4 5
1 4 4
1 4 1
1 5 5
1 5 4
1 5 1
1 -5 -1
1 1 -1
0.999999999999999 -5 -5
1 1 -5
1 4 -5
1 4 -1
1 5 -5
1 5 -1

CELLS 48 432
8 84 85 81 80 58 59 57 56 
8 80 87 88 83 56 61 49 53 
8 22 34 42 38 84 86 87 80 
8 8 19 27 31 69 65 73 74 
8 38 39 21 20 80 81 82 83 
8 26 34 42 44 89 86 87 90 
8 52 48 30 11 66 70 71 72 
8 66 70 71 72 53 49 29 14 
8 36 37 38 39 12 15 20 21 
8 4 9 22 23 36 37 38 39 
8 38 42 28 20 80 87 88 83 
8 84 86 87 80 58 60 61 56 
8 22 23 39 38 84 85 81 80 
8 80 81 82 83 56 57 55 53 
8 9 22 34 33 37 38 42 43 
8 37 38 42 43 15 20 28 32 
8 33 34 26 5 43 42 44 45 
8 43 42 44 45 32 28 25 17 
8 68 69 65 64 12 15 20 21 
8 0 8 19 18 68 69 65 64 
8 56 57 55 53 40 41 13 14 
8 58 59 57 56 10 7 41 40 
8 58 60 61 56 10 35 46 40 
8 56 61 49 53 40 46 29 14 
8 62 60 61 63 6 35 46 47 
8 63 61 49 50 47 46 29 16 
8 69 65 73 74 15 20 28 32 
8 31 27 24 1 74 73 75 76 
8 74 73 75 76 32 28 25 17 
8 51 48 30 2 77 70 71 78 
8 77 70 71 78 50 49 29 16 
8 54 52 11 3 67 66 72 79 
8 67 66 72 79 55 53 14 13 
8 89 86 87 90 62 60 61 63 
8 44 42 28 25 90 87 88 91 
8 90 87 88 91 63 61 49 50 
8 64 65 20 21 92 93 83 82 
8 92 93 83 82 67 66 53 55 
8 18 19 65 64 94 95 93 92 
8 94 95 93 92 54 52 66 67 
8 19 27 73 65 95 96 97 93 
8 95 96 97 93 52 48 70 66 
8 65 73 28 20 93 97 88 83 
8 93 97 88 83 66 70 49 53 
8 24 27 73 75 98 96 97 99 
8 98 96 97 99 51 48 70 77 
8 75 73 28 25 99 97 88 91 
8 99 97 88 91 77 70 49 50 

CELL_TYPES 48
12 
12 
12 
12 
12 
12 
12 
12 
12 
12 
12 
12 
12 
12 
12 
12 
12 
12 
12 
12 
12 
12 
12 
12 
12 
12 
12 
12 
12 
12 
12 
12 
12 
12 
12 
12 
12 
12 
12 
12 
12 
12 
12 
12 
12 
12 
12 
12 
POINT_DATA 100
SCALARS GMDS_ID int 1
LOOKUP_TABLE default
0 1 2 3 4 5 6 7 8 9 10 11 12 13 14 15 16 17 18 19 20 21 22 23 24 25 26 27 28 29 30 31 32 33 34 35 36 37 38 39 40 41 42 43 44 45 46 47 48 49 50 51 52 53 54 55 56 57 58 59 60 61 62 63 64 65 66 67 68 69 70 71 72 73 74 75 76 77 78 79 80 81 82 83 84 85 86 87 88 89 90 91 92 93 94 95 96 97 98 99 
SCALARS geom_link_dim int 1
LOOKUP_TABLE default
1 1 1 1 1 1 1 1 2 2 2 2 2 2 3 3 2 2 2 3 0 3 3 2 2 3 2 3 0 3 2 2 3 2 3 2 2 3 0 3 3 2 0 3 3 2 3 2 3 0 3 2 3 0 2 3 0 3 3 2 3 0 2 3 3 0 0 3 2 3 0 3 3 0 3 3 2 3 2 2 0 3 3 0 3 2 3 0 0 2 3 3 3 0 2 3 3 0 2 3 
SCALARS geom_link_id int 1
LOOKUP_TABLE default
18 20 24 21 17 19 23 22 32 33 24 34 31 29 12 17 25 28 30 13 0 18 10 35 36 11 23 13 0 12 34 32 17 33 10 24 31 17 0 18 12 29 0 17 11 28 12 25 13 0 11 36 13 0 30 18 0 18 10 35 10 0 23 11 18 0 0 18 31 17 0 12 12 0 17 11 28 11 25 29 -1 18 18 -1 10 35 10 -1 -1 23 11 11 18 -1 30 13 13 -1 36 11 


CELL_DATA 48
SCALARS GMDS_ID int 1
LOOKUP_TABLE default
0 2 3 4 6 7 8 9 10 11 12 13 14 15 16 17 18 19 20 21 25 27 29 31 33 35 36 37 38 39 40 43 44 45 46 47 48 49 50 51 52 53 54 55 56 57 58 59 

SCALARS is_in int 1
LOOKUP_TABLE default
1 1 1 1 1 1 1 1 1 1 1 1 1 1 1 1 1 1 1 1 1 1 1 1 1 1 1 1 1 1 1 1 1 1 1 1 1 1 1 1 1 1 1 1 1 1 1 1 

SCALARS geom_link_dim int 1
LOOKUP_TABLE default
0 0 0 0 0 0 0 0 0 0 0 0 0 0 0 0 0 0 0 0 0 0 0 0 0 0 0 0 0 0 0 0 0 0 0 0 0 0 0 0 0 0 0 0 0 0 0 0 

SCALARS geom_link_id int 1
LOOKUP_TABLE default
-1 -1 -1 0 -1 -1 0 0 0 0 -1 -1 -1 -1 0 0 0 0 0 0 0 0 0 0 0 0 0 0 0 0 0 0 0 -1 -1 -1 -1 -1 -1 -1 -1 -1 -1 -1 -1 -1 -1 -1 

