# vtk DataFile Version 3.0
Generated by GMDS VTK Writer

ASCII
DATASET UNSTRUCTURED_GRID
POINTS 180 float
-5 -5 -5
-5 5 -5
5 5 -5
5 -5 -5
-5 -5 5
-5 5 5
5 5 5
5 -5 5
-5 1 -5
-5 1 5
5 1 5
5 1 -5
-5 -5 1
5 -5 1
5 1 1
-5 1 1
5 5 1
-5 5 1
-1 -5 -5
-1 1 -5
-1 1 1
-1 -5 1
-1 1 5
-1 -5 5
-1 5 -5
-1 5 1
-1 5 5
-1 4 -5
-1 4 1
5 4 1
5 4 -5
-5 4 -5
-5 4 1
-5 4 5
-1 4 5
5 4 5
-5 -5 4
-5 1 4
-1 1 4
-1 -5 4
5 1 4
5 -5 4
-1 4 4
-5 4 4
-1 5 4
-5 5 4
5 4 4
5 5 4
4 4 -5
4 4 1
4 5 1
4 5 -5
4 1 -5
4 1 1
4 -5 -5
4 -5 1
4 1 4
4 -5 4
4 1 5
4 -5 5
4 4 5
4 4 4
4 5 5
4 5 4
-1 -5 -1
-1 1 -1
4 1 -1
4 -5 -1
-5 -5 -1
-5 1 -1
4 4 -1
5 4 -1
5 1 -1
-1 4 -1
-5 4 -1
-1 5 -1
-5 5 -0.999999999999999
4 5 -1
5 5 -1
5 -5 -1
1 1 4
1 -5 4
1 -5 1
1 1 1
1 1 5
1 -5 5
1 4 5
1 4 4
1 4 1
1 5 5
1 5 4
1 5 1
1 -5 -1
1 1 -1
0.999999999999999 -5 -5
1 1 -5
1 4 -5
1 4 -1
1 5 -5
1 5 -1
-5 -1 -1
-1 -1 -1
-1 -1 1
-5 -1 1
-5 -0.999999999999999 -5
-1 -1 -5
1 -1 5
1 -1 4
4 -1 4
4 -1 5
-1 -1 5
-1 -1 4
-5 -1 4
-5 -1 5
1 -1 1
4 -1 1
5 -1 4
5 -1 1
5 -1 5
5 -1 -5
4 -1 -5
4 -1 -1
5 -1 -1
1 -1 -1
1 -1 -5
5 3 -1
4 3 -1
4 3 1
5 3 1
5 3 -5
4 3 -5
1 3 5
1 3 4
4 3 4
4 3 5
-1 3 5
-1 3 4
-5 3 -1
-1 3 -1
-1 3 1
-5 3 1
-5 3 -5
-1 3 -5
-5 3 4
-5 3 5
1 3 1
5 3 4
5 3 5
1 3 -1
1 3 -5
3 3 4
3 3 5
3 4 5
3 4 4
3 1 4
3 1 5
3 -1 4
3 -1 5
3 -5 4
3 -5 5
3 3 -5
3 3 -1
3 4 -1
3 4 -5
3 1 -5
3 1 -1
3 5 5
3 5 4
3 4 1
3 5 1
3 5 -5
3 5 -1
3 3 1
3 1 1
3 -5 1
3 -1 1
3 -5 -5
3 -5 -1
3 -1 -1
3 -1 -5

CELLS 100 900
8 143 136 139 140 43 42 28 32 
8 104 105 101 100 8 19 65 69 
8 158 159 157 156 81 85 106 107 
8 62 60 61 63 166 152 153 167 
8 52 66 126 130 164 165 161 160 
8 0 18 64 68 104 105 101 100 
8 69 65 20 15 137 138 139 140 
8 26 34 42 44 89 86 87 90 
8 63 61 49 50 167 153 168 169 
8 167 153 168 169 90 87 88 91 
8 141 142 138 137 31 27 73 74 
8 8 19 65 69 141 142 138 137 
8 57 59 109 108 158 159 157 156 
8 166 152 153 167 89 86 87 90 
8 37 38 20 15 143 136 139 140 
8 137 138 139 140 74 73 28 32 
8 130 126 70 48 160 161 162 163 
8 160 161 162 163 149 148 97 96 
8 33 34 26 5 43 42 44 45 
8 43 42 44 45 32 28 25 17 
8 144 135 136 143 33 34 42 43 
8 9 22 38 37 144 135 136 143 
8 113 110 111 112 9 22 38 37 
8 135 136 132 131 34 42 87 86 
8 4 23 39 36 113 110 111 112 
8 22 38 80 84 135 136 132 131 
8 112 111 102 103 37 38 20 15 
8 108 109 58 56 156 157 155 154 
8 36 39 21 12 112 111 102 103 
8 156 157 155 154 107 106 84 80 
8 110 111 107 106 22 38 80 84 
8 62 60 61 63 6 35 46 47 
8 23 39 81 85 110 111 107 106 
8 63 61 49 50 47 46 29 16 
8 164 165 161 160 95 93 148 149 
8 31 27 24 1 74 73 75 76 
8 74 73 75 76 32 28 25 17 
8 51 48 30 2 77 70 71 78 
8 77 70 71 78 50 49 29 16 
8 100 101 102 103 69 65 20 15 
8 68 64 21 12 100 101 102 103 
8 44 42 28 25 90 87 88 91 
8 129 130 126 125 30 48 70 71 
8 11 52 66 72 129 130 126 125 
8 125 126 127 128 71 70 49 29 
8 72 66 53 14 125 126 127 128 
8 150 151 152 153 132 131 86 87 
8 133 134 60 61 150 151 152 153 
8 154 155 151 150 80 84 131 132 
8 56 58 134 133 154 155 151 150 
8 24 27 73 75 98 96 97 99 
8 75 73 28 25 99 97 88 91 
8 21 39 81 82 102 111 107 114 
8 102 111 107 114 20 38 80 83 
8 55 57 41 13 115 108 116 117 
8 115 108 116 117 53 56 40 14 
8 59 57 41 7 109 108 116 118 
8 109 108 116 118 58 56 40 10 
8 3 54 67 79 119 120 121 122 
8 119 120 121 122 11 52 66 72 
8 79 67 55 13 122 121 115 117 
8 122 121 115 117 72 66 53 14 
8 21 64 92 82 102 101 123 114 
8 102 101 123 114 20 65 93 83 
8 18 64 92 94 105 101 123 124 
8 105 101 123 124 19 65 93 95 
8 20 38 80 83 139 136 132 145 
8 139 136 132 145 28 42 87 88 
8 53 56 40 14 127 133 146 128 
8 127 133 146 128 49 61 46 29 
8 58 56 40 10 134 133 146 147 
8 134 133 146 147 60 61 46 35 
8 20 65 93 83 139 138 148 145 
8 139 138 148 145 28 73 97 88 
8 19 65 93 95 142 138 148 149 
8 142 138 148 149 27 73 97 96 
8 48 51 77 70 163 170 171 162 
8 163 170 171 162 96 98 99 97 
8 70 77 50 49 162 171 169 168 
8 162 171 169 168 97 99 91 88 
8 127 126 70 49 172 161 162 168 
8 172 161 162 168 145 148 97 88 
8 53 66 126 127 173 165 161 172 
8 173 165 161 172 83 93 148 145 
8 55 57 108 115 174 158 156 175 
8 174 158 156 175 82 81 107 114 
8 115 108 56 53 175 156 154 173 
8 175 156 154 173 114 107 80 83 
8 54 67 121 120 176 177 178 179 
8 176 177 178 179 94 92 123 124 
8 120 121 66 52 179 178 165 164 
8 179 178 165 164 124 123 93 95 
8 55 67 121 115 174 177 178 175 
8 174 177 178 175 82 92 123 114 
8 115 121 66 53 175 178 165 173 
8 175 178 165 173 114 123 93 83 
8 53 56 133 127 173 154 150 172 
8 173 154 150 172 83 80 132 145 
8 127 133 61 49 172 150 153 168 
8 172 150 153 168 145 132 87 88 

CELL_TYPES 100
12 
12 
12 
12 
12 
12 
12 
12 
12 
12 
12 
12 
12 
12 
12 
12 
12 
12 
12 
12 
12 
12 
12 
12 
12 
12 
12 
12 
12 
12 
12 
12 
12 
12 
12 
12 
12 
12 
12 
12 
12 
12 
12 
12 
12 
12 
12 
12 
12 
12 
12 
12 
12 
12 
12 
12 
12 
12 
12 
12 
12 
12 
12 
12 
12 
12 
12 
12 
12 
12 
12 
12 
12 
12 
12 
12 
12 
12 
12 
12 
12 
12 
12 
12 
12 
12 
12 
12 
12 
12 
12 
12 
12 
12 
12 
12 
12 
12 
12 
12 
POINT_DATA 180
SCALARS GMDS_ID int 1
LOOKUP_TABLE default
0 1 2 3 4 5 6 7 8 9 10 11 12 13 14 15 16 17 18 19 20 21 22 23 24 25 26 27 28 29 30 31 32 33 34 35 36 37 38 39 40 41 42 43 44 45 46 47 48 49 50 51 52 53 54 55 56 57 58 59 60 61 62 63 64 65 66 67 68 69 70 71 72 73 74 75 76 77 78 79 80 81 82 83 84 85 86 87 88 89 90 91 92 93 94 95 96 97 98 99 100 101 102 103 104 105 106 107 108 109 110 111 112 113 114 115 116 117 118 119 120 121 122 123 124 125 126 127 128 129 130 131 132 133 134 135 136 137 138 139 140 141 142 143 144 145 146 147 148 149 150 151 152 153 154 155 156 157 158 159 160 161 162 163 164 165 166 167 168 169 170 171 172 173 174 175 176 177 178 179 
SCALARS geom_link_dim int 1
LOOKUP_TABLE default
1 1 1 1 1 1 1 1 2 2 2 2 2 2 3 3 2 2 2 3 0 3 3 2 2 3 2 3 0 3 2 2 3 2 3 2 2 3 0 3 3 2 0 3 3 2 3 2 3 0 3 2 3 0 2 3 0 3 3 2 3 0 2 3 3 0 0 3 2 3 0 3 3 0 3 3 2 3 2 2 0 3 3 0 3 2 3 0 0 2 3 3 3 0 2 3 3 0 2 3 3 0 0 3 2 3 3 0 0 3 3 0 3 2 0 0 3 3 2 2 3 0 3 0 3 3 0 0 3 2 3 3 0 0 3 3 0 3 0 0 3 2 3 3 2 0 3 2 0 3 0 3 3 0 0 3 0 3 3 2 3 0 0 3 3 0 2 3 0 3 2 3 0 0 3 0 2 3 0 3 
SCALARS geom_link_id int 1
LOOKUP_TABLE default
18 20 24 21 17 19 23 22 32 33 24 34 31 29 12 17 25 28 30 13 0 18 10 35 36 11 23 13 0 12 34 32 17 33 10 24 31 17 0 18 12 29 0 17 11 28 12 25 13 0 11 36 13 0 30 18 0 18 10 35 10 0 23 11 18 0 0 18 31 17 0 12 12 0 17 11 28 11 25 29 0 18 18 0 10 35 10 0 0 23 11 11 18 0 30 13 13 0 36 11 17 0 0 17 32 13 10 0 0 10 10 0 17 33 0 0 12 12 24 34 13 0 12 0 13 12 0 0 12 34 13 10 0 0 10 10 0 17 0 0 17 32 13 17 33 0 12 24 0 13 -1 10 10 -1 -1 10 -1 10 18 35 13 -1 -1 13 13 -1 23 11 -1 11 36 11 -1 -1 18 -1 30 18 -1 13 


CELL_DATA 100
SCALARS GMDS_ID int 1
LOOKUP_TABLE default
0 1 2 3 4 5 6 7 8 9 10 11 12 13 14 15 16 17 18 19 20 21 24 25 26 27 28 29 30 31 32 33 34 35 36 37 38 39 40 41 42 46 48 49 50 51 52 53 54 55 56 58 62 63 64 65 66 67 68 69 70 71 72 73 76 77 82 83 84 85 86 87 88 89 92 93 96 97 98 99 100 101 102 103 104 105 106 107 108 109 110 111 112 113 114 115 116 117 118 119 

SCALARS is_in int 1
LOOKUP_TABLE default
1 1 1 1 1 1 1 1 1 1 1 1 1 1 1 1 1 1 1 1 1 1 1 1 1 1 1 1 1 1 1 1 1 1 1 1 1 1 1 1 1 1 1 1 1 1 1 1 1 1 1 1 1 1 1 1 1 1 1 1 1 1 1 0 1 1 1 1 1 1 1 1 1 1 1 1 1 1 1 1 1 1 1 1 1 1 1 1 1 1 1 1 1 1 1 1 1 1 1 1 

SCALARS geom_link_dim int 1
LOOKUP_TABLE default
0 0 0 0 0 0 0 0 0 0 0 0 0 0 0 0 0 0 0 0 0 0 0 0 0 0 0 0 0 0 0 0 0 0 0 0 0 0 0 0 0 0 0 0 0 0 0 0 0 0 0 0 0 0 0 0 0 0 0 0 0 0 0 0 0 0 0 0 0 0 0 0 0 0 0 0 0 0 0 0 0 0 0 0 0 0 0 0 0 0 0 0 0 0 0 0 0 0 0 0 

SCALARS geom_link_id int 1
LOOKUP_TABLE default
0 0 -1 -1 -1 0 0 0 -1 -1 0 0 -1 -1 0 0 -1 -1 0 0 0 0 0 0 0 0 0 -1 0 -1 0 0 0 0 -1 0 0 0 0 0 0 0 0 0 0 0 -1 -1 -1 -1 0 0 0 0 0 0 0 0 0 0 0 0 0 0 0 0 0 0 0 0 0 0 0 0 0 0 -1 -1 -1 -1 -1 -1 -1 -1 -1 -1 -1 -1 -1 -1 -1 -1 -1 -1 -1 -1 -1 -1 -1 -1 

