# vtk DataFile Version 3.0
Generated by GMDS VTK Writer

ASCII
DATASET UNSTRUCTURED_GRID
POINTS 216 float
-5 -5 -5
-5 5 -5
5 5 -5
5 -5 -5
-5 -5 5
-5 5 5
5 5 5
5 -5 5
4 -5 -5
4 5 -5
4 5 5
4 -5 5
-5 1 -5
-5 1 5
4 1 5
4 1 -5
5 1 5
5 1 -5
-5 -5 -1
4 -5 -1
4 1 -1
-5 1 -1
4 5 -1
-5 5 -1
5 -5 -1
5 1 -1
5 5 -1
-5 3 -1
4 3 -1
4 3 5
-5 3 5
-5 3 -5
4 3 -5
5 3 -5
5 3 -1
5 3 5
-1 -5 -5
-1 1 -5
-1 1 -1
-1 -5 -1
-1 3 5
-1 3 -1
-1 5 -1
-1 5 5
-1 1 5
-1 -5 5
-1 3 -5
-1 5 -5
5 -5 3
4 -5 3
4 1 3
5 1 3
5 3 3
4 3 3
5 5 3
4 5 3
-5 5 3
-5 3 3
-1 3 3
-1 5 3
-5 1 3
-1 1 3
-5 -5 3
-1 -5 3
4 1 1
5 1 1
5 3 1
4 3 1
5 -5 0.999999999999999
4 -5 1
5 5 0.999999999999999
4 5 1
-5 5 1
-5 3 1
-1 3 1
-1 5 1
-5 1 1
-1 1 1
-5 -5 0.999999999999999
-1 -5 0.999999999999999
-1 -1 -5
-1 -1 -1
4 -1 -1
4 -1 -5
-5 -0.999999999999999 -5
-5 -1 -1
5 -1 -5
5 -1 -1
5 -1 5
4 -1 5
4 -1 3
5 -1 3
5 -1 1
4 -1 1
-5 -1 5
-1 -1 5
-1 -1 3
-5 -1 3
-1 -1 1
-5 -1 1
5 4 0.999999999999999
4 4 1
4 4 -1
5 4 -1
5 4 3
4 4 3
5 4 -5
4 4 -5
-5 4 -5
-5 4 -1
-1 4 -1
-1 4 -5
5 4 5
4 4 5
-5 4 5
-1 4 5
-1 4 3
-5 4 3
-1 4 1
-5 4 1
3 1 -5
3 1 -1
3 3 -1
3 3 -5
3 1 5
3 3 5
3 3 3
3 1 3
3 4 -5
3 4 -1
3 5 -5
3 5 -1
3 4 3
3 4 1
3 3 1
3 1 1
3 5 3
3 5 1
3 -1 -5
3 -1 -1
3 -5 -5
3 -5 -1
3 -5 5
3 -5 3
3 -1 3
3 -1 5
3 -5 1
3 -1 1
3 5 5
3 4 5
5 -5 4
4 -5 4
4 -1 4
5 -1 4
4 1 4
5 1 4
5 3 4
4 3 4
-5 1 4
-5 3 4
-1 3 4
-1 1 4
3 1 4
3 3 4
-5 -5 4
-1 -5 4
-1 -1 4
-5 -1 4
5 5 4
4 5 4
4 4 4
5 4 4
-5 5 4
-1 5 4
-1 4 4
-5 4 4
3 -1 4
3 -5 4
3 4 4
3 5 4
1 4 -5
1 4 -1
1 3 -1
1 3 -5
1 1 -5
1 1 -1
1 1 4
1 3 4
1 3 3
1 1 3
1 1 5
1 3 5
1 5 -5
1 5 -1
1 4 3
1 4 1
1 3 1
1 1 1
1 5 3
1 5 1
1 -1 -5
1 -1 -1
0.999999999999999 -5 -5
1 -5 -1
1 -5 1
1 -1 1
1 -5 3
1 -1 3
1 -5 5
1 -1 5
1 -1 4
1 -5 4
1 5 5
1 4 5
1 4 4
1 5 4

CELLS 121 1089
8 112 113 29 35 171 170 157 156 
8 198 199 195 194 59 75 118 116 
8 138 139 121 120 200 201 185 184 
8 197 196 182 185 77 74 41 38 
8 9 22 102 107 130 131 129 128 
8 68 69 19 24 92 93 82 87 
8 64 67 28 20 135 134 122 121 
8 171 170 157 156 104 105 53 52 
8 192 193 181 180 47 42 110 111 
8 132 133 134 126 194 195 196 188 
8 15 17 25 20 32 33 34 28 
8 127 126 134 135 189 188 196 197 
8 189 188 196 197 61 58 74 77 
8 108 109 110 111 31 27 41 46 
8 1 23 42 47 108 109 110 111 
8 64 65 66 67 20 25 34 28 
8 50 51 52 53 64 65 66 67 
8 12 21 27 31 37 38 41 46 
8 172 173 174 175 56 59 116 117 
8 105 101 67 53 132 133 134 126 
8 86 83 82 87 17 15 20 25 
8 107 102 28 32 128 129 122 123 
8 3 8 19 24 86 83 82 87 
8 136 137 133 132 198 199 195 194 
8 84 85 81 80 12 21 38 37 
8 5 43 115 114 172 173 174 175 
8 0 18 39 36 84 85 81 80 
8 106 107 102 103 33 32 28 34 
8 164 165 166 167 62 63 96 97 
8 2 9 22 26 106 107 102 103 
8 4 45 95 94 164 165 166 167 
8 15 20 28 32 120 121 122 123 
8 60 57 58 61 76 73 74 77 
8 76 73 74 77 21 27 41 38 
8 167 166 161 158 97 96 61 60 
8 6 10 113 112 168 169 170 171 
8 104 105 101 100 52 53 67 66 
8 54 55 71 70 104 105 101 100 
8 100 101 102 103 66 67 28 34 
8 70 71 22 26 100 101 102 103 
8 92 93 82 87 65 64 20 25 
8 48 49 69 68 91 90 93 92 
8 91 90 93 92 51 50 64 65 
8 135 134 122 121 197 196 182 185 
8 194 195 196 188 116 118 74 58 
8 154 157 163 162 50 53 126 127 
8 14 29 125 124 154 157 163 162 
8 62 63 79 78 97 96 98 99 
8 97 96 98 99 60 61 77 76 
8 78 79 39 18 99 98 81 85 
8 99 98 81 85 76 77 38 21 
8 158 159 160 161 60 57 58 61 
8 13 30 40 44 158 159 160 161 
8 130 131 129 128 192 193 181 180 
8 190 191 187 186 44 40 160 161 
8 154 155 156 157 50 51 52 53 
8 14 16 35 29 154 155 156 157 
8 56 59 75 72 117 116 118 119 
8 117 116 118 119 57 58 74 73 
8 72 75 42 23 119 118 110 109 
8 119 118 110 109 73 74 41 27 
8 94 95 44 13 167 166 161 158 
8 168 169 170 171 54 55 105 104 
8 88 89 14 16 153 152 154 155 
8 153 152 154 155 91 90 50 51 
8 50 53 67 64 127 126 134 135 
8 55 71 101 105 136 137 133 132 
8 83 82 20 15 138 139 121 120 
8 8 19 82 83 140 141 139 138 
8 102 101 67 28 129 133 134 122 
8 22 71 101 102 131 137 133 129 
8 124 125 163 162 190 191 187 186 
8 186 187 188 189 161 160 58 61 
8 162 163 126 127 186 187 188 189 
8 184 185 182 183 37 38 41 46 
8 19 69 93 82 141 146 147 139 
8 82 93 64 20 139 147 135 121 
8 150 151 152 153 48 49 90 91 
8 49 69 93 90 143 146 147 144 
8 90 93 64 50 144 147 135 127 
8 120 121 122 123 184 185 182 183 
8 180 181 182 183 111 110 41 46 
8 7 11 89 88 150 151 152 153 
8 128 129 122 123 180 181 182 183 
8 114 115 40 30 175 174 160 159 
8 175 174 160 159 117 116 58 57 
8 11 89 145 142 151 152 176 177 
8 151 152 176 177 49 90 144 143 
8 14 89 145 124 154 152 176 162 
8 154 152 176 162 50 90 144 127 
8 10 113 149 148 169 170 178 179 
8 169 170 178 179 55 105 132 136 
8 200 201 185 184 80 81 38 37 
8 140 141 139 138 202 203 201 200 
8 202 203 201 200 36 39 81 80 
8 129 133 134 122 181 195 196 182 
8 181 195 196 182 110 118 74 41 
8 131 137 133 129 193 199 195 181 
8 193 199 195 181 42 75 118 110 
8 141 146 147 139 203 204 205 201 
8 203 204 205 201 39 79 98 81 
8 143 146 147 144 206 204 205 207 
8 206 204 205 207 63 79 98 96 
8 144 147 135 127 207 205 197 189 
8 207 205 197 189 96 98 77 61 
8 142 145 176 177 208 209 210 211 
8 208 209 210 211 45 95 166 165 
8 177 176 144 143 211 210 207 206 
8 211 210 207 206 165 166 96 63 
8 124 145 176 162 190 209 210 186 
8 190 209 210 186 44 95 166 161 
8 162 176 144 127 186 210 207 189 
8 186 210 207 189 161 166 96 61 
8 148 149 178 179 212 213 214 215 
8 212 213 214 215 43 115 174 173 
8 179 178 132 136 215 214 194 198 
8 215 214 194 198 173 174 116 59 
8 125 149 178 163 191 213 214 187 
8 191 213 214 187 40 115 174 160 
8 163 178 132 126 187 214 194 188 
8 187 214 194 188 160 174 116 58 

CELL_TYPES 121
12 
12 
12 
12 
12 
12 
12 
12 
12 
12 
12 
12 
12 
12 
12 
12 
12 
12 
12 
12 
12 
12 
12 
12 
12 
12 
12 
12 
12 
12 
12 
12 
12 
12 
12 
12 
12 
12 
12 
12 
12 
12 
12 
12 
12 
12 
12 
12 
12 
12 
12 
12 
12 
12 
12 
12 
12 
12 
12 
12 
12 
12 
12 
12 
12 
12 
12 
12 
12 
12 
12 
12 
12 
12 
12 
12 
12 
12 
12 
12 
12 
12 
12 
12 
12 
12 
12 
12 
12 
12 
12 
12 
12 
12 
12 
12 
12 
12 
12 
12 
12 
12 
12 
12 
12 
12 
12 
12 
12 
12 
12 
12 
12 
12 
12 
12 
12 
12 
12 
12 
12 
POINT_DATA 216
SCALARS GMDS_ID int 1
LOOKUP_TABLE default
0 1 2 3 4 5 6 7 8 9 10 11 12 13 14 15 16 17 18 19 20 21 22 23 24 25 26 27 28 29 30 31 32 33 34 35 36 37 38 39 40 41 42 43 44 45 46 47 48 49 50 51 52 53 54 55 56 57 58 59 60 61 62 63 64 65 66 67 68 69 70 71 72 73 74 75 76 77 78 79 80 81 82 83 84 85 86 87 88 89 90 91 92 93 94 95 96 97 98 99 100 101 102 103 104 105 106 107 108 109 110 111 112 113 114 115 116 117 118 119 120 121 122 123 124 125 126 127 128 129 130 131 132 133 134 135 136 137 138 139 140 141 142 143 144 145 146 147 148 149 150 151 152 153 154 155 156 157 158 159 160 161 162 163 164 165 166 167 168 169 170 171 172 173 174 175 176 177 178 179 180 181 182 183 184 185 186 187 188 189 190 191 192 193 194 195 196 197 198 199 200 201 202 203 204 205 206 207 208 209 210 211 212 213 214 215 
SCALARS geom_link_dim_0 int 1
LOOKUP_TABLE default
0 0 0 0 0 0 0 0 0 0 0 0 0 0 0 0 0 0 0 0 0 0 0 0 0 0 0 0 0 0 0 0 0 0 0 0 0 0 0 0 0 0 0 0 0 0 0 0 0 0 0 0 0 0 0 0 0 0 0 0 0 0 0 0 0 0 0 0 0 0 0 0 0 0 0 0 0 0 0 0 0 0 0 0 0 0 0 0 0 0 0 0 0 0 0 0 0 0 0 0 0 0 0 0 0 0 0 0 0 0 0 0 0 0 0 0 0 0 0 0 0 0 0 0 0 0 0 0 0 0 0 0 0 0 0 0 0 0 0 0 0 0 0 0 0 0 0 0 0 0 0 0 0 0 0 0 0 0 0 0 0 0 0 0 0 0 0 0 0 0 0 0 0 0 0 0 0 0 0 0 0 0 0 0 0 0 0 0 0 0 0 0 0 0 0 0 0 0 0 0 0 0 0 0 0 0 0 0 0 0 0 0 0 0 0 0 
SCALARS geom_link_id_0 int 1
LOOKUP_TABLE default
0 0 0 0 0 0 0 0 0 0 0 0 0 0 0 0 0 0 0 0 0 0 0 0 0 0 0 0 0 0 0 0 0 0 0 0 0 0 0 0 0 0 0 0 0 0 0 0 0 0 0 0 0 0 0 0 0 0 0 0 0 0 0 0 0 0 0 0 0 0 0 0 0 0 0 0 0 0 0 0 0 0 0 0 0 0 0 0 0 0 0 0 0 0 0 0 0 0 0 0 0 0 0 0 0 0 0 0 0 0 0 0 0 0 0 0 0 0 0 0 0 0 0 0 0 0 0 0 0 0 0 0 0 0 0 0 0 0 0 0 0 0 0 0 0 0 0 0 0 0 0 0 0 0 0 0 0 0 0 0 0 0 0 0 0 0 0 0 0 0 0 0 0 0 0 0 0 0 0 0 0 0 0 0 0 0 0 0 0 0 0 0 0 0 0 0 0 0 0 0 0 0 0 0 0 0 0 0 0 0 0 0 0 0 0 0 


CELL_DATA 121
SCALARS GMDS_ID int 1
LOOKUP_TABLE default
0 1 2 3 4 5 7 8 10 11 12 14 15 16 17 18 19 20 21 22 25 26 27 28 29 30 31 32 33 34 35 36 37 38 39 40 41 42 43 44 45 46 47 48 49 50 51 52 53 54 55 56 57 60 61 62 63 64 65 66 67 68 69 70 71 72 74 76 78 80 82 84 85 86 87 88 90 91 92 94 96 97 98 99 100 101 102 103 106 107 110 111 116 117 118 119 120 121 122 123 124 125 126 127 128 129 130 131 132 133 134 135 136 137 138 139 140 141 142 143 144 

SCALARS geom_link_dim_0 int 1
LOOKUP_TABLE default
0 0 0 0 0 0 0 0 0 0 0 0 0 0 0 0 0 0 0 0 0 0 0 0 0 0 0 0 0 0 0 0 0 0 0 0 0 0 0 0 0 0 0 0 0 0 0 0 0 0 0 0 0 0 0 0 0 0 0 0 0 0 0 0 0 0 0 0 0 0 0 0 0 0 0 0 0 0 0 0 0 0 0 0 0 0 0 0 0 0 0 0 0 0 0 0 0 0 0 0 0 0 0 0 0 0 0 0 0 0 0 0 0 0 0 0 0 0 0 0 0 

SCALARS geom_link_id_0 int 1
LOOKUP_TABLE default
0 0 0 0 0 0 0 0 0 0 0 0 0 0 0 0 0 0 0 0 0 0 0 0 0 0 0 0 0 0 0 0 0 0 0 0 0 0 0 0 0 0 0 0 0 0 0 0 0 0 0 0 0 0 0 0 0 0 0 0 0 0 0 0 0 0 0 0 0 0 0 0 0 0 0 0 0 0 0 0 0 0 0 0 0 0 0 0 0 0 0 0 0 0 0 0 0 0 0 0 0 0 0 0 0 0 0 0 0 0 0 0 0 0 0 0 0 0 0 0 0 

