# vtk DataFile Version 3.0
Generated by GMDS VTK Writer

ASCII
DATASET UNSTRUCTURED_GRID
POINTS 27 float
-5 -5 -5
-5 5 -5
5 5 -5
5 -5 -5
-5 -5 5
-5 5 5
5 5 5
5 -5 5
1 -5 -5
1 5 -5
1 5 5
1 -5 5
-5 4 -5
-5 4 5
1 4 5
1 4 -5
5 4 5
5 4 -5
-5 5 -1
1 5 -1
1 4 -1
-5 4 -1
1 -5 -1
-5 -5 -1
5 5 -1
5 4 -1
5 -5 -1

CELLS 8 72
8 18 19 20 21 5 10 14 13 
8 1 9 15 12 18 19 20 21 
8 12 15 8 0 21 20 22 23 
8 21 20 22 23 13 14 11 4 
8 2 9 15 17 24 19 20 25 
8 24 19 20 25 6 10 14 16 
8 17 15 8 3 25 20 22 26 
8 25 20 22 26 16 14 11 7 

CELL_TYPES 8
12 
12 
12 
12 
12 
12 
12 
12 
POINT_DATA 27
SCALARS GMDS_ID int 1
LOOKUP_TABLE default
0 1 2 3 4 5 6 7 8 9 10 11 12 13 14 15 16 17 18 19 20 21 22 23 24 25 26 
SCALARS geom_link_dim_0 int 1
LOOKUP_TABLE default
0 0 0 0 0 0 0 0 0 0 0 0 0 0 0 0 0 0 0 0 0 0 0 0 0 0 0 
SCALARS geom_link_id_0 int 1
LOOKUP_TABLE default
0 0 0 0 0 0 0 0 0 0 0 0 0 0 0 0 0 0 0 0 0 0 0 0 0 0 0 


CELL_DATA 8
SCALARS GMDS_ID int 1
LOOKUP_TABLE default
1 2 6 7 8 9 10 11 

SCALARS geom_link_dim_0 int 1
LOOKUP_TABLE default
0 0 0 0 0 0 0 0 

SCALARS geom_link_id_0 int 1
LOOKUP_TABLE default
0 0 0 0 0 0 0 0 

