# vtk DataFile Version 3.0
Generated by GMDS VTK Writer

ASCII
DATASET UNSTRUCTURED_GRID
POINTS 216 float
-5 -5 -5
-5 5 -5
5 5 -5
5 -5 -5
-5 -5 5
-5 5 5
5 5 5
5 -5 5
-5 1 -5
-5 1 5
5 1 5
5 1 -5
-5 -5 1
5 -5 1
5 1 1
-5 1 1
5 5 1
-5 5 1
-1 -5 -5
-1 1 -5
-1 1 1
-1 -5 1
-1 1 5
-1 -5 5
-1 5 -5
-1 5 1
-1 5 5
-1 4 -5
-1 4 1
5 4 1
5 4 -5
-5 4 -5
-5 4 1
-5 4 5
-1 4 5
5 4 5
-5 -5 4
-5 1 4
-1 1 4
-1 -5 4
5 1 4
5 -5 4
-1 4 4
-5 4 4
-1 5 4
-5 5 4
5 4 4
5 5 4
4 4 -5
4 4 1
4 5 1
4 5 -5
4 1 -5
4 1 1
4 -5 -5
4 -5 1
4 1 4
4 -5 4
4 1 5
4 -5 5
4 4 5
4 4 4
4 5 5
4 5 4
-1 -5 -1
-1 1 -1
4 1 -1
4 -5 -1
-5 -5 -1
-5 1 -1
4 4 -1
5 4 -1
5 1 -1
-1 4 -1
-5 4 -1
-1 5 -1
-5 5 -0.999999999999999
4 5 -1
5 5 -1
5 -5 -1
1 1 4
1 -5 4
1 -5 1
1 1 1
1 1 5
1 -5 5
1 4 5
1 4 4
1 4 1
1 5 5
1 5 4
1 5 1
1 -5 -1
1 1 -1
0.999999999999999 -5 -5
1 1 -5
1 4 -5
1 4 -1
1 5 -5
1 5 -1
-5 -1 -1
-1 -1 -1
-1 -1 1
-5 -1 1
-5 -0.999999999999999 -5
-1 -1 -5
1 -1 5
1 -1 4
4 -1 4
4 -1 5
-1 -1 5
-1 -1 4
-5 -1 4
-5 -1 5
1 -1 1
4 -1 1
5 -1 4
5 -1 1
5 -1 5
5 -1 -5
4 -1 -5
4 -1 -1
5 -1 -1
1 -1 -1
1 -1 -5
5 3 -1
4 3 -1
4 3 1
5 3 1
5 3 -5
4 3 -5
1 3 5
1 3 4
4 3 4
4 3 5
-1 3 5
-1 3 4
-5 3 -1
-1 3 -1
-1 3 1
-5 3 1
-5 3 -5
-1 3 -5
-5 3 4
-5 3 5
1 3 1
5 3 4
5 3 5
1 3 -1
1 3 -5
-5 3 3
-1 3 3
-1 4 3
-5 4 3
-5 1 3
-1 1 3
-1 5 3
-5 5 3
4 5 3
4 4 3
5 4 3
5 5 3
-5 -1 3
-1 -1 3
-5 -5 3
-1 -5 3
1 4 3
1 5 3
5 3 3
4 3 3
5 1 3
4 1 3
4 -5 3
1 -5 3
1 -1 3
4 -1 3
1 1 3
5 -5 3
5 -1 3
1 3 3
3 3 4
3 3 5
3 4 5
3 4 4
3 4 3
3 5 3
3 5 4
3 4 1
3 5 1
3 1 4
3 1 5
3 -1 4
3 -1 5
3 -5 4
3 -5 5
3 3 -5
3 3 -1
3 4 -1
3 4 -5
3 1 -5
3 1 -1
3 5 5
3 5 -5
3 5 -1
3 3 1
3 1 1
3 -5 -5
3 -5 -1
3 -1 -1
3 -1 -5
3 -5 1
3 -1 1
3 3 3
3 1 3
3 -1 3
3 -5 3

CELLS 123 1107
8 198 202 203 197 96 98 99 97 
8 104 105 101 100 8 19 65 69 
8 158 159 160 161 63 61 46 47 
8 25 28 88 91 156 152 166 167 
8 12 21 102 103 164 165 163 162 
8 0 18 64 68 104 105 101 100 
8 69 65 20 15 137 138 139 140 
8 26 34 42 44 89 86 87 90 
8 141 142 138 137 31 27 73 74 
8 8 19 65 69 141 142 138 137 
8 50 49 29 16 158 159 160 161 
8 156 152 166 167 44 42 87 90 
8 48 51 77 70 198 202 203 197 
8 137 138 139 140 74 73 28 32 
8 103 102 20 15 162 163 155 154 
8 162 163 155 154 112 111 38 37 
8 33 34 26 5 43 42 44 45 
8 201 182 183 186 89 86 87 90 
8 144 135 136 143 33 34 42 43 
8 9 22 38 37 144 135 136 143 
8 113 110 111 112 9 22 38 37 
8 135 136 132 131 34 42 87 86 
8 4 23 39 36 113 110 111 112 
8 22 38 80 84 135 136 132 131 
8 199 200 196 195 95 93 148 149 
8 32 28 25 17 153 152 156 157 
8 52 66 126 130 199 200 196 195 
8 153 152 156 157 43 42 44 45 
8 110 111 107 106 22 38 80 84 
8 62 60 61 63 6 35 46 47 
8 23 39 81 85 110 111 107 106 
8 62 60 61 63 201 182 183 186 
8 164 165 163 162 36 39 111 112 
8 31 27 24 1 74 73 75 76 
8 74 73 75 76 32 28 25 17 
8 51 48 30 2 77 70 71 78 
8 77 70 71 78 50 49 29 16 
8 100 101 102 103 69 65 20 15 
8 68 64 21 12 100 101 102 103 
8 195 196 197 198 149 148 97 96 
8 130 126 70 48 195 196 197 198 
8 129 130 126 125 30 48 70 71 
8 11 52 66 72 129 130 126 125 
8 125 126 127 128 71 70 49 29 
8 72 66 53 14 125 126 127 128 
8 150 151 152 153 143 136 42 43 
8 140 139 28 32 150 151 152 153 
8 154 155 151 150 37 38 136 143 
8 15 20 139 140 154 155 151 150 
8 24 27 73 75 98 96 97 99 
8 75 73 28 25 99 97 88 91 
8 191 192 190 189 107 106 84 80 
8 108 109 58 56 191 192 190 189 
8 189 190 181 180 80 84 131 132 
8 56 58 134 133 189 190 181 180 
8 187 188 185 184 88 91 167 166 
8 49 50 158 159 187 188 185 184 
8 59 57 41 7 109 108 116 118 
8 109 108 116 118 58 56 40 10 
8 3 54 67 79 119 120 121 122 
8 119 120 121 122 11 52 66 72 
8 79 67 55 13 122 121 115 117 
8 122 121 115 117 72 66 53 14 
8 21 64 92 82 102 101 123 114 
8 18 64 92 94 105 101 123 124 
8 105 101 123 124 19 65 93 95 
8 184 185 186 183 166 167 90 87 
8 159 158 63 61 184 185 186 183 
8 180 181 182 183 132 131 86 87 
8 133 134 60 61 180 181 182 183 
8 57 59 109 108 193 194 192 191 
8 193 194 192 191 81 85 106 107 
8 58 56 40 10 134 133 146 147 
8 134 133 146 147 60 61 46 35 
8 20 65 93 83 139 138 148 145 
8 139 138 148 145 28 73 97 88 
8 19 65 93 95 142 138 148 149 
8 142 138 148 149 27 73 97 96 
8 128 127 49 29 168 169 159 160 
8 168 169 159 160 146 133 61 46 
8 14 53 127 128 170 171 169 168 
8 170 171 169 168 40 56 133 146 
8 21 82 114 102 165 173 174 163 
8 165 173 174 163 39 81 107 111 
8 102 114 83 20 163 174 176 155 
8 163 174 176 155 111 107 80 38 
8 13 55 115 117 177 172 175 178 
8 177 172 175 178 41 57 108 116 
8 117 115 53 14 178 175 171 170 
8 178 175 171 170 116 108 56 40 
8 20 83 145 139 155 176 179 151 
8 155 176 179 151 38 80 132 136 
8 139 145 88 28 151 179 166 152 
8 151 179 166 152 136 132 87 42 
8 70 77 50 49 197 203 188 187 
8 197 203 188 187 97 99 91 88 
8 127 126 70 49 204 196 197 187 
8 204 196 197 187 145 148 97 88 
8 53 66 126 127 205 200 196 204 
8 205 200 196 204 83 93 148 145 
8 54 67 121 120 206 207 208 209 
8 206 207 208 209 94 92 123 124 
8 120 121 66 52 209 208 200 199 
8 209 208 200 199 124 123 93 95 
8 55 67 121 115 210 207 208 211 
8 210 207 208 211 82 92 123 114 
8 115 121 66 53 211 208 200 205 
8 211 208 200 205 114 123 93 83 
8 49 127 169 159 187 204 212 184 
8 187 204 212 184 88 145 179 166 
8 184 212 180 183 166 179 132 87 
8 53 127 169 171 205 204 212 213 
8 205 204 212 213 83 145 179 176 
8 171 169 133 56 213 212 180 189 
8 213 212 180 189 176 179 132 80 
8 55 115 175 172 210 211 214 215 
8 210 211 214 215 82 114 174 173 
8 172 175 108 57 215 214 191 193 
8 215 214 191 193 173 174 107 81 
8 53 115 175 171 205 211 214 213 
8 205 211 214 213 83 114 174 176 
8 171 175 108 56 213 214 191 189 
8 213 214 191 189 176 174 107 80 

CELL_TYPES 123
12 
12 
12 
12 
12 
12 
12 
12 
12 
12 
12 
12 
12 
12 
12 
12 
12 
12 
12 
12 
12 
12 
12 
12 
12 
12 
12 
12 
12 
12 
12 
12 
12 
12 
12 
12 
12 
12 
12 
12 
12 
12 
12 
12 
12 
12 
12 
12 
12 
12 
12 
12 
12 
12 
12 
12 
12 
12 
12 
12 
12 
12 
12 
12 
12 
12 
12 
12 
12 
12 
12 
12 
12 
12 
12 
12 
12 
12 
12 
12 
12 
12 
12 
12 
12 
12 
12 
12 
12 
12 
12 
12 
12 
12 
12 
12 
12 
12 
12 
12 
12 
12 
12 
12 
12 
12 
12 
12 
12 
12 
12 
12 
12 
12 
12 
12 
12 
12 
12 
12 
12 
12 
12 
POINT_DATA 216
SCALARS GMDS_ID int 1
LOOKUP_TABLE default
0 1 2 3 4 5 6 7 8 9 10 11 12 13 14 15 16 17 18 19 20 21 22 23 24 25 26 27 28 29 30 31 32 33 34 35 36 37 38 39 40 41 42 43 44 45 46 47 48 49 50 51 52 53 54 55 56 57 58 59 60 61 62 63 64 65 66 67 68 69 70 71 72 73 74 75 76 77 78 79 80 81 82 83 84 85 86 87 88 89 90 91 92 93 94 95 96 97 98 99 100 101 102 103 104 105 106 107 108 109 110 111 112 113 114 115 116 117 118 119 120 121 122 123 124 125 126 127 128 129 130 131 132 133 134 135 136 137 138 139 140 141 142 143 144 145 146 147 148 149 150 151 152 153 154 155 156 157 158 159 160 161 162 163 164 165 166 167 168 169 170 171 172 173 174 175 176 177 178 179 180 181 182 183 184 185 186 187 188 189 190 191 192 193 194 195 196 197 198 199 200 201 202 203 204 205 206 207 208 209 210 211 212 213 214 215 
SCALARS geom_link_dim int 1
LOOKUP_TABLE default
1 1 1 1 1 1 1 1 2 2 2 2 2 2 3 3 2 2 2 3 1 3 3 2 2 3 2 3 0 3 2 2 3 2 3 2 2 3 0 3 3 2 0 3 3 2 3 2 3 0 3 2 3 0 2 3 0 3 3 2 3 1 2 3 3 1 0 3 2 3 0 3 3 0 3 3 2 3 2 2 0 3 3 1 3 2 3 0 0 2 3 3 3 1 2 3 3 0 2 3 3 1 1 3 2 3 3 0 0 3 3 0 3 2 1 0 3 3 2 2 3 0 3 1 3 3 0 0 3 2 3 3 0 1 3 3 0 3 0 0 3 2 3 3 2 0 3 2 0 3 3 0 0 3 3 0 3 2 3 1 3 2 3 0 2 3 0 3 3 1 3 0 3 3 0 0 0 2 3 0 1 3 3 1 1 3 3 0 3 0 3 0 3 3 2 3 0 0 3 3 0 2 2 3 0 0 2 3 0 3 3 0 1 0 0 3 
SCALARS geom_link_id int 1
LOOKUP_TABLE default
18 20 24 21 17 19 23 22 32 33 24 34 31 29 12 17 25 28 30 13 3 18 10 35 36 11 23 13 0 12 34 32 17 33 10 24 31 17 0 18 12 29 0 17 11 28 12 25 13 0 11 36 13 0 30 18 0 18 10 35 10 15 23 11 18 4 0 18 31 17 0 12 12 0 17 11 28 11 25 29 0 18 18 7 10 35 10 0 0 23 11 11 18 8 30 13 13 0 36 11 17 2 1 17 32 13 10 0 0 10 10 0 17 33 5 0 12 12 24 34 13 0 12 6 13 12 0 0 12 34 13 10 0 13 10 10 0 17 0 0 17 32 13 17 33 0 12 24 0 13 17 0 0 17 17 0 11 28 11 16 12 25 17 0 31 18 0 11 12 14 12 0 18 18 0 0 0 29 12 0 9 10 10 11 12 11 11 0 11 0 10 0 10 18 35 13 0 0 13 13 0 23 36 11 0 0 30 18 0 13 18 0 10 0 0 18 


CELL_DATA 123
SCALARS GMDS_ID int 1
LOOKUP_TABLE default
0 1 2 3 4 5 6 7 10 11 12 13 14 15 16 17 18 19 20 21 24 25 26 27 28 29 30 31 32 33 34 35 36 37 38 39 40 41 42 46 47 48 49 50 51 52 53 54 55 56 58 60 61 62 63 64 65 66 67 68 69 70 71 72 76 77 80 81 82 83 84 85 86 87 88 89 92 93 96 97 98 99 104 105 106 107 108 109 110 111 116 117 118 119 120 121 122 123 124 125 126 127 128 129 130 131 132 133 134 135 137 138 139 140 141 142 143 144 145 146 147 148 149 

SCALARS is_in int 1
LOOKUP_TABLE default
1 1 1 1 1 1 1 1 1 1 1 1 1 1 1 1 1 1 1 1 1 1 1 1 1 1 1 1 1 1 1 1 1 1 1 1 1 1 1 1 1 1 1 1 1 1 1 1 1 1 1 1 1 1 1 1 1 1 1 1 1 1 1 1 1 1 1 1 1 1 1 1 1 1 1 1 1 1 1 1 1 1 1 1 1 1 1 1 1 1 1 1 1 1 1 1 1 1 1 1 1 1 1 1 1 1 1 1 1 1 1 1 1 1 1 1 1 1 1 1 1 1 1 

SCALARS geom_link_dim int 1
LOOKUP_TABLE default
0 0 0 0 0 0 0 0 0 0 0 0 0 0 0 0 0 0 0 0 0 0 0 0 0 0 0 0 0 0 0 0 0 0 0 0 0 0 0 0 0 0 0 0 0 0 0 0 0 0 0 0 0 0 0 0 0 0 0 0 0 0 0 0 0 0 0 0 0 0 0 0 0 0 0 0 0 0 0 0 0 0 0 0 0 0 0 0 0 0 0 0 0 0 0 0 0 0 0 0 0 0 0 0 0 0 0 0 0 0 0 0 0 0 0 0 0 0 0 0 0 0 0 

SCALARS geom_link_id int 1
LOOKUP_TABLE default
0 0 0 0 0 0 0 0 0 0 0 0 0 0 0 0 0 0 0 0 0 0 0 0 0 0 0 0 0 0 0 0 0 0 0 0 0 0 0 0 0 0 0 0 0 0 0 0 0 0 0 0 0 0 0 0 0 0 0 0 0 0 0 0 0 0 0 0 0 0 0 0 0 0 0 0 0 0 0 0 0 0 0 0 0 0 0 0 0 0 0 0 0 0 0 0 0 0 0 0 0 0 0 0 0 0 0 0 0 0 0 0 0 0 0 0 0 0 0 0 0 0 0 

