# vtk DataFile Version 3.0
Generated by GMDS VTK Writer

ASCII
DATASET UNSTRUCTURED_GRID
POINTS 80 float
-5 -5 -5
-5 5 -5
5 5 -5
5 -5 -5
-5 -5 5
-5 5 5
5 5 5
5 -5 5
-5 -1 -5
-5 -1 5
5 -1 5
5 -1 -5
-5 -5 -1
5 -5 -1
5 -1 -1
-5 -1 -1
5 5 -1
-5 5 -1
-1 -5 -5
-1 -1 -5
-1 -1 -1
-1 -5 -1
-1 -1 5
-1 -5 5
-1 5 -5
-1 5 -1
-1 5 5
-1 0.999999999999999 -5
-1 1 -1
5 0.999999999999999 -1
5 0.999999999999999 -5
-5 1 -5
-5 1 -1
-5 0.999999999999999 5
-1 0.999999999999999 5
5 0.999999999999999 5
-5 -5 1
-5 -1 1
-1 -1 1
-1 -5 1
5 -1 1
5 -5 1
-1 1 1
-5 1 1
-1 5 1
-5 5 1
5 0.999999999999999 1
5 5 1
1 0.999999999999999 -5
1 1 -1
1 5 -1
1 5 -5
1 -1 -5
1 -1 -1
0.999999999999999 -5 -5
1 -5 -1
1 -1 1
1 -5 1
1 -1 5
1 -5 5
1 0.999999999999999 5
1 1 1
1 5 5
1 5 1
-5 3 -5
-5 3 -1
-1 3 -1
-1 3 -5
1 3 -5
1 3 -1
5 3 -1
5 3 -5
-5 3 5
-1 3 5
-1 3 1
-5 3 1
1 3 1
1 3 5
5 3 1
5 3 5

CELLS 36 324
8 33 34 42 43 72 73 74 75 
8 0 8 15 12 18 19 20 21 
8 8 15 20 19 31 32 28 27 
8 43 42 28 32 75 74 66 65 
8 72 73 74 75 5 26 44 45 
8 54 52 53 55 3 11 14 13 
8 18 19 20 21 54 52 53 55 
8 27 28 49 48 67 66 69 68 
8 67 66 69 68 24 25 50 51 
8 36 37 38 39 12 15 20 21 
8 4 9 22 23 36 37 38 39 
8 52 53 49 48 11 14 29 30 
8 19 20 28 27 52 53 49 48 
8 9 22 34 33 37 38 42 43 
8 37 38 42 43 15 20 28 32 
8 68 69 70 71 51 50 16 2 
8 48 49 29 30 68 69 70 71 
8 64 65 66 67 1 17 25 24 
8 31 32 28 27 64 65 66 67 
8 38 39 21 20 56 57 55 53 
8 56 57 55 53 40 41 13 14 
8 22 23 39 38 58 59 57 56 
8 58 59 57 56 10 7 41 40 
8 22 34 42 38 58 60 61 56 
8 58 60 61 56 10 35 46 40 
8 38 42 28 20 56 61 49 53 
8 56 61 49 53 40 46 29 14 
8 75 74 66 65 45 44 25 17 
8 34 42 61 60 73 74 76 77 
8 73 74 76 77 26 44 63 62 
8 60 61 46 35 77 76 78 79 
8 77 76 78 79 62 63 47 6 
8 28 42 61 49 66 74 76 69 
8 66 74 76 69 25 44 63 50 
8 49 61 46 29 69 76 78 70 
8 69 76 78 70 50 63 47 16 

CELL_TYPES 36
12 
12 
12 
12 
12 
12 
12 
12 
12 
12 
12 
12 
12 
12 
12 
12 
12 
12 
12 
12 
12 
12 
12 
12 
12 
12 
12 
12 
12 
12 
12 
12 
12 
12 
12 
12 
POINT_DATA 80
SCALARS GMDS_ID int 1
LOOKUP_TABLE default
0 1 2 3 4 5 6 7 8 9 10 11 12 13 14 15 16 17 18 19 20 21 22 23 24 25 26 27 28 29 30 31 32 33 34 35 36 37 38 39 40 41 42 43 44 45 46 47 48 49 50 51 52 53 54 55 56 57 58 59 60 61 62 63 64 65 66 67 68 69 70 71 72 73 74 75 76 77 78 79 
SCALARS geom_link_dim_0 int 1
LOOKUP_TABLE default
0 0 0 0 0 0 0 0 0 0 0 0 0 0 0 0 0 0 0 0 0 0 0 0 0 0 0 0 0 0 0 0 0 0 0 0 0 0 0 0 0 0 0 0 0 0 0 0 0 0 0 0 0 0 0 0 0 0 0 0 0 0 0 0 0 0 0 0 0 0 0 0 0 0 0 0 0 0 0 0 
SCALARS geom_link_id_0 int 1
LOOKUP_TABLE default
0 0 0 0 0 0 0 0 0 0 0 0 0 0 0 0 0 0 0 0 0 0 0 0 0 0 0 0 0 0 0 0 0 0 0 0 0 0 0 0 0 0 0 0 0 0 0 0 0 0 0 0 0 0 0 0 0 0 0 0 0 0 0 0 0 0 0 0 0 0 0 0 0 0 0 0 0 0 0 0 


CELL_DATA 36
SCALARS GMDS_ID int 1
LOOKUP_TABLE default
1 2 3 4 5 6 7 8 9 10 11 12 13 16 17 20 21 22 23 24 25 26 27 28 29 30 31 36 37 38 39 40 41 42 43 44 

SCALARS geom_link_dim_0 int 1
LOOKUP_TABLE default
0 0 0 0 0 0 0 0 0 0 0 0 0 0 0 0 0 0 0 0 0 0 0 0 0 0 0 0 0 0 0 0 0 0 0 0 

SCALARS geom_link_id_0 int 1
LOOKUP_TABLE default
0 0 0 0 0 0 0 0 0 0 0 0 0 0 0 0 0 0 0 0 0 0 0 0 0 0 0 0 0 0 0 0 0 0 0 0 

