# vtk DataFile Version 3.0
Generated by GMDS VTK Writer

ASCII
DATASET UNSTRUCTURED_GRID
POINTS 216 float
-5 -5 -5
-5 5 -5
5 5 -5
5 -5 -5
-5 -5 5
-5 5 5
5 5 5
5 -5 5
-5 1 -5
-5 1 5
5 1 5
5 1 -5
-5 -5 1
5 -5 1
5 1 1
-5 1 1
5 5 1
-5 5 1
-1 -5 -5
-1 1 -5
-1 1 1
-1 -5 1
-1 1 5
-1 -5 5
-1 5 -5
-1 5 1
-1 5 5
-1 4 -5
-1 4 1
5 4 1
5 4 -5
-5 4 -5
-5 4 1
-5 4 5
-1 4 5
5 4 5
-5 -5 4
-5 1 4
-1 1 4
-1 -5 4
5 1 4
5 -5 4
-1 4 4
-5 4 4
-1 5 4
-5 5 4
5 4 4
5 5 4
4 4 -5
4 4 1
4 5 1
4 5 -5
4 1 -5
4 1 1
4 -5 -5
4 -5 1
4 1 4
4 -5 4
4 1 5
4 -5 5
4 4 5
4 4 4
4 5 5
4 5 4
-1 -5 -1
-1 1 -1
4 1 -1
4 -5 -1
-5 -5 -1
-5 1 -1
4 4 -1
5 4 -1
5 1 -1
-1 4 -1
-5 4 -1
-1 5 -1
-5 5 -0.999999999999999
4 5 -1
5 5 -1
5 -5 -1
1 1 4
1 -5 4
1 -5 1
1 1 1
1 1 5
1 -5 5
1 4 5
1 4 4
1 4 1
1 5 5
1 5 4
1 5 1
1 -5 -1
1 1 -1
0.999999999999999 -5 -5
1 1 -5
1 4 -5
1 4 -1
1 5 -5
1 5 -1
-5 -1 -1
-1 -1 -1
-1 -1 1
-5 -1 1
-5 -0.999999999999999 -5
-1 -1 -5
1 -1 5
1 -1 4
4 -1 4
4 -1 5
-1 -1 5
-1 -1 4
-5 -1 4
-5 -1 5
1 -1 1
4 -1 1
5 -1 4
5 -1 1
5 -1 5
5 -1 -5
4 -1 -5
4 -1 -1
5 -1 -1
1 -1 -1
1 -1 -5
5 3 -1
4 3 -1
4 3 1
5 3 1
5 3 -5
4 3 -5
1 3 5
1 3 4
4 3 4
4 3 5
-1 3 5
-1 3 4
-5 3 -1
-1 3 -1
-1 3 1
-5 3 1
-5 3 -5
-1 3 -5
-5 3 4
-5 3 5
1 3 1
5 3 4
5 3 5
1 3 -1
1 3 -5
3 3 4
3 3 5
3 4 5
3 4 4
3 1 4
3 1 5
3 -1 4
3 -1 5
3 -5 4
3 -5 5
3 3 -5
3 3 -1
3 4 -1
3 4 -5
3 1 -5
3 1 -1
3 5 5
3 5 4
3 4 1
3 5 1
3 5 -5
3 5 -1
3 3 1
3 1 1
3 -5 1
3 -1 1
3 -5 -5
3 -5 -1
3 -1 -1
3 -1 -5
-5 3 3
-1 3 3
-1 4 3
-5 4 3
-5 1 3
-1 1 3
-1 5 3
-5 5 3
4 5 3
4 4 3
5 4 3
5 5 3
-5 -1 3
-1 -1 3
-5 -5 3
-1 -5 3
1 4 3
1 5 3
5 3 3
4 3 3
5 1 3
4 1 3
1 -5 3
1 -1 3
1 1 3
5 -5 3
4 -5 3
4 -1 3
5 -1 3
1 3 3
3 5 3
3 4 3
3 3 3
3 1 3
3 -1 3
3 -5 3

CELLS 540 1620
2 104 105
2 27 24
2 38 80
2 29 16
2 18 105
2 152 151
2 22 84
2 28 25
2 15 20
2 65 20
2 0 18
2 8 19
2 84 131
2 9 37
2 72 125
2 4 36
2 53 127
2 125 71
2 11 129
2 52 130
2 154 155
2 52 66
2 30 2
2 32 183
2 21 82
2 23 85
2 49 29
2 56 154
2 128 127
2 80 132
2 28 182
2 51 2
2 187 183
2 50 16
2 23 39
2 152 86
2 22 38
2 12 21
2 19 65
2 131 86
2 180 143
2 132 87
2 187 186
2 9 22
2 0 68
2 4 23
2 18 64
2 187 45
2 126 70
2 48 30
2 1 24
2 54 67
2 17 25
2 67 55
2 39 81
2 5 26
2 133 61
2 68 100
2 104 8
2 20 83
2 66 53
2 61 153
2 31 1
2 60 152
2 32 17
2 130 126
2 32 28
2 31 27
2 133 150
2 33 5
2 150 132
2 34 26
2 64 101
2 50 49
2 33 34
2 155 151
2 35 6
2 51 48
2 8 69
2 37 38
2 66 126
2 36 39
2 10 40
2 7 41
2 68 12
2 127 126
2 64 21
2 34 42
2 33 43
2 134 151
2 43 42
2 151 131
2 26 44
2 5 45
2 44 42
2 45 44
2 45 43
2 35 46
2 69 15
2 154 150
2 6 47
2 85 106
2 47 46
2 104 100
2 52 11
2 105 19
2 53 14
2 157 106
2 154 80
2 103 100
2 54 3
2 0 104
2 55 13
2 130 48
2 128 125
2 128 29
2 102 101
2 56 40
2 103 102
2 57 41
2 126 125
2 101 100
2 58 10
2 103 15
2 59 7
2 14 128
2 59 57
2 58 56
2 102 20
2 60 35
2 12 103
2 61 46
2 156 107
2 60 61
2 155 157
2 21 102
2 62 6
2 101 65
2 63 47
2 62 60
2 61 63
2 62 63
2 56 133
2 69 65
2 68 64
2 48 70
2 70 49
2 30 71
2 71 29
2 11 72
2 72 14
2 58 155
2 71 70
2 155 84
2 72 66
2 27 73
2 73 28
2 150 151
2 105 101
2 31 74
2 74 32
2 73 74
2 153 87
2 24 75
2 75 25
2 1 76
2 76 17
2 75 73
2 76 75
2 76 74
2 51 77
2 77 50
2 2 78
2 78 16
2 70 77
2 78 71
2 78 77
2 100 69
2 3 79
2 79 13
2 129 30
2 79 67
2 127 49
2 85 81
2 84 80
2 34 86
2 50 188
2 42 87
2 188 63
2 108 156
2 86 87
2 156 157
2 28 88
2 17 187
2 109 157
2 26 89
2 140 180
2 44 90
2 25 186
2 89 86
2 87 90
2 89 90
2 25 91
2 186 44
2 91 88
2 64 92
2 181 180
2 65 93
2 185 38
2 129 125
2 83 93
2 82 92
2 18 94
2 182 42
2 19 95
2 184 37
2 129 130
2 95 93
2 94 92
2 27 96
2 15 184
2 73 97
2 184 180
2 152 153
2 96 97
2 153 150
2 88 97
2 24 98
2 183 180
2 75 99
2 185 181
2 98 96
2 97 99
2 98 99
2 91 99
2 106 84
2 81 107
2 107 80
2 57 108
2 108 56
2 59 109
2 109 58
2 107 106
2 181 136
2 108 109
2 139 181
2 23 110
2 110 22
2 39 111
2 111 38
2 110 111
2 111 107
2 110 106
2 36 112
2 112 37
2 112 111
2 4 113
2 113 9
2 113 110
2 113 112
2 82 114
2 114 83
2 55 115
2 115 53
2 183 43
2 102 114
2 41 116
2 116 40
2 13 117
2 117 14
2 116 108
2 117 115
2 7 118
2 118 10
2 118 116
2 118 109
2 3 119
2 119 11
2 54 120
2 120 52
2 67 121
2 121 66
2 79 122
2 122 72
2 119 120
2 120 121
2 121 122
2 119 122
2 115 121
2 117 122
2 92 123
2 123 93
2 101 123
2 114 123
2 182 181
2 94 124
2 124 95
2 123 124
2 105 124
2 182 183
2 58 134
2 134 60
2 132 131
2 189 61
2 133 134
2 49 189
2 22 135
2 135 34
2 38 136
2 136 42
2 135 136
2 136 132
2 135 131
2 69 137
2 137 74
2 65 138
2 138 73
2 20 139
2 139 28
2 15 140
2 140 32
2 138 137
2 139 138
2 140 139
2 140 137
2 8 141
2 141 31
2 19 142
2 142 27
2 141 142
2 142 138
2 141 137
2 37 143
2 143 43
2 143 136
2 9 144
2 144 33
2 144 135
2 144 143
2 83 145
2 145 88
2 186 182
2 139 145
2 40 146
2 146 46
2 146 133
2 10 147
2 147 35
2 147 146
2 147 134
2 93 148
2 148 97
2 138 148
2 145 148
2 184 185
2 95 149
2 149 96
2 148 149
2 142 149
2 20 185
2 154 156
2 57 158
2 158 81
2 59 159
2 159 85
2 158 159
2 159 157
2 158 156
2 130 160
2 160 149
2 126 161
2 161 148
2 70 162
2 162 97
2 48 163
2 163 96
2 161 160
2 162 161
2 163 162
2 163 160
2 52 164
2 164 95
2 66 165
2 165 93
2 164 165
2 165 161
2 164 160
2 62 166
2 166 89
2 63 167
2 167 90
2 152 166
2 153 167
2 166 167
2 49 168
2 168 88
2 50 169
2 169 91
2 168 169
2 51 170
2 170 98
2 77 171
2 171 99
2 163 170
2 170 171
2 162 171
2 169 171
2 168 162
2 127 172
2 172 145
2 161 172
2 168 172
2 53 173
2 173 83
2 173 165
2 173 172
2 55 174
2 174 82
2 115 175
2 175 114
2 174 175
2 173 175
2 54 176
2 176 94
2 67 177
2 177 92
2 121 178
2 178 123
2 120 179
2 179 124
2 176 177
2 177 178
2 179 178
2 176 179
2 165 178
2 164 179
2 174 177
2 175 178
2 29 190
2 190 46
2 16 191
2 191 47
2 189 188
2 190 189
2 191 190
2 191 188
2 103 192
2 192 112
2 102 193
2 193 111
2 193 192
2 185 193
2 184 192
2 12 194
2 194 36
2 21 195
2 195 39
2 194 195
2 195 193
2 194 192
2 88 196
2 196 87
2 91 197
2 197 90
2 182 196
2 196 197
2 186 197
2 128 198
2 198 146
2 127 199
2 199 133
2 199 198
2 189 199
2 190 198
2 14 200
2 200 40
2 53 201
2 201 56
2 200 201
2 201 199
2 200 198
2 82 202
2 202 81
2 114 203
2 203 107
2 195 202
2 202 203
2 193 203
2 83 204
2 204 80
2 204 203
2 185 204
2 13 205
2 205 41
2 55 206
2 206 57
2 115 207
2 207 108
2 117 208
2 208 116
2 205 206
2 206 207
2 207 208
2 205 208
2 201 207
2 200 208
2 145 209
2 209 132
2 204 209
2 181 209
2 196 209
2 169 210
2 210 167
2 168 211
2 211 153
2 188 210
2 211 210
2 189 211
2 197 210
2 196 211
2 172 212
2 212 150
2 199 212
2 211 212
2 209 212
2 173 213
2 213 154
2 212 213
2 201 213
2 204 213
2 175 214
2 214 156
2 174 215
2 215 158
2 207 214
2 215 214
2 206 215
2 203 214
2 202 215
2 213 214

CELL_TYPES 540
3 
3 
3 
3 
3 
3 
3 
3 
3 
3 
3 
3 
3 
3 
3 
3 
3 
3 
3 
3 
3 
3 
3 
3 
3 
3 
3 
3 
3 
3 
3 
3 
3 
3 
3 
3 
3 
3 
3 
3 
3 
3 
3 
3 
3 
3 
3 
3 
3 
3 
3 
3 
3 
3 
3 
3 
3 
3 
3 
3 
3 
3 
3 
3 
3 
3 
3 
3 
3 
3 
3 
3 
3 
3 
3 
3 
3 
3 
3 
3 
3 
3 
3 
3 
3 
3 
3 
3 
3 
3 
3 
3 
3 
3 
3 
3 
3 
3 
3 
3 
3 
3 
3 
3 
3 
3 
3 
3 
3 
3 
3 
3 
3 
3 
3 
3 
3 
3 
3 
3 
3 
3 
3 
3 
3 
3 
3 
3 
3 
3 
3 
3 
3 
3 
3 
3 
3 
3 
3 
3 
3 
3 
3 
3 
3 
3 
3 
3 
3 
3 
3 
3 
3 
3 
3 
3 
3 
3 
3 
3 
3 
3 
3 
3 
3 
3 
3 
3 
3 
3 
3 
3 
3 
3 
3 
3 
3 
3 
3 
3 
3 
3 
3 
3 
3 
3 
3 
3 
3 
3 
3 
3 
3 
3 
3 
3 
3 
3 
3 
3 
3 
3 
3 
3 
3 
3 
3 
3 
3 
3 
3 
3 
3 
3 
3 
3 
3 
3 
3 
3 
3 
3 
3 
3 
3 
3 
3 
3 
3 
3 
3 
3 
3 
3 
3 
3 
3 
3 
3 
3 
3 
3 
3 
3 
3 
3 
3 
3 
3 
3 
3 
3 
3 
3 
3 
3 
3 
3 
3 
3 
3 
3 
3 
3 
3 
3 
3 
3 
3 
3 
3 
3 
3 
3 
3 
3 
3 
3 
3 
3 
3 
3 
3 
3 
3 
3 
3 
3 
3 
3 
3 
3 
3 
3 
3 
3 
3 
3 
3 
3 
3 
3 
3 
3 
3 
3 
3 
3 
3 
3 
3 
3 
3 
3 
3 
3 
3 
3 
3 
3 
3 
3 
3 
3 
3 
3 
3 
3 
3 
3 
3 
3 
3 
3 
3 
3 
3 
3 
3 
3 
3 
3 
3 
3 
3 
3 
3 
3 
3 
3 
3 
3 
3 
3 
3 
3 
3 
3 
3 
3 
3 
3 
3 
3 
3 
3 
3 
3 
3 
3 
3 
3 
3 
3 
3 
3 
3 
3 
3 
3 
3 
3 
3 
3 
3 
3 
3 
3 
3 
3 
3 
3 
3 
3 
3 
3 
3 
3 
3 
3 
3 
3 
3 
3 
3 
3 
3 
3 
3 
3 
3 
3 
3 
3 
3 
3 
3 
3 
3 
3 
3 
3 
3 
3 
3 
3 
3 
3 
3 
3 
3 
3 
3 
3 
3 
3 
3 
3 
3 
3 
3 
3 
3 
3 
3 
3 
3 
3 
3 
3 
3 
3 
3 
3 
3 
3 
3 
3 
3 
3 
3 
3 
3 
3 
3 
3 
3 
3 
3 
3 
3 
3 
3 
3 
3 
3 
3 
3 
3 
3 
3 
3 
3 
3 
3 
3 
3 
3 
3 
3 
3 
3 
3 
3 
3 
3 
3 
3 
3 
3 
3 
3 
3 
3 
3 
3 
3 
3 
3 
3 
3 
3 
3 
3 
3 
3 
3 
3 
3 
3 
3 
3 
3 
3 
3 
3 
3 
3 
3 
3 
3 
3 
3 
3 
3 
3 
3 
3 
3 
3 
POINT_DATA 216
SCALARS GMDS_ID int 1
LOOKUP_TABLE default
0 1 2 3 4 5 6 7 8 9 10 11 12 13 14 15 16 17 18 19 20 21 22 23 24 25 26 27 28 29 30 31 32 33 34 35 36 37 38 39 40 41 42 43 44 45 46 47 48 49 50 51 52 53 54 55 56 57 58 59 60 61 62 63 64 65 66 67 68 69 70 71 72 73 74 75 76 77 78 79 80 81 82 83 84 85 86 87 88 89 90 91 92 93 94 95 96 97 98 99 100 101 102 103 104 105 106 107 108 109 110 111 112 113 114 115 116 117 118 119 120 121 122 123 124 125 126 127 128 129 130 131 132 133 134 135 136 137 138 139 140 141 142 143 144 145 146 147 148 149 150 151 152 153 154 155 156 157 158 159 160 161 162 163 164 165 166 167 168 169 170 171 172 173 174 175 176 177 178 179 180 181 182 183 184 185 186 187 188 189 190 191 192 193 194 195 196 197 198 199 200 201 202 203 204 205 206 207 208 209 210 211 212 213 214 215 
SCALARS geom_link_dim int 1
LOOKUP_TABLE default
1 1 1 1 1 1 1 1 2 2 2 2 2 2 3 3 2 2 2 3 0 3 3 2 2 3 2 3 0 3 2 2 3 2 3 2 2 3 0 3 3 2 0 3 3 2 3 2 3 0 3 2 3 0 2 3 0 3 3 2 3 0 2 3 3 0 0 3 2 3 0 3 3 0 3 3 2 3 2 2 0 3 3 0 3 2 3 0 0 2 3 3 3 0 2 3 3 0 2 3 3 0 0 3 2 3 3 0 0 3 3 0 3 2 0 0 3 3 2 2 3 0 3 0 3 3 0 0 3 2 3 3 0 0 3 3 0 3 0 0 3 2 3 3 2 0 3 2 0 3 0 3 3 0 0 3 0 3 3 2 3 0 0 3 3 0 2 3 0 3 2 3 0 0 3 0 2 3 0 3 3 0 0 3 3 0 3 2 3 0 3 2 3 0 2 3 0 3 3 0 3 0 3 0 0 2 3 0 3 0 3 0 0 0 0 3 
SCALARS geom_link_id int 1
LOOKUP_TABLE default
18 20 24 21 17 19 23 22 32 33 24 34 31 29 12 17 25 28 30 13 0 18 10 35 36 11 23 13 0 12 34 32 17 33 10 24 31 17 0 18 12 29 0 17 11 28 12 25 13 0 11 36 13 0 30 18 0 18 10 35 10 0 23 11 18 0 0 18 31 17 0 12 12 0 17 11 28 11 25 29 0 18 18 0 10 35 10 0 0 23 11 11 18 0 30 13 13 0 36 11 17 0 0 17 32 13 10 0 0 10 10 0 17 33 0 0 12 12 24 34 13 0 12 0 13 12 0 0 12 34 13 10 0 0 10 10 0 17 0 0 17 32 13 17 33 0 12 24 0 13 0 10 10 0 0 10 0 10 18 35 13 0 0 13 13 0 23 11 0 11 36 11 0 0 18 0 30 18 0 13 17 -1 -1 17 17 -1 11 28 11 -1 12 25 17 -1 31 18 -1 11 12 -1 12 -1 18 -1 -1 29 18 -1 12 -1 11 -1 -1 -1 -1 18 


CELL_DATA 540
SCALARS GMDS_ID int 1
LOOKUP_TABLE default
0 1 2 3 4 5 6 7 8 9 10 11 12 13 14 15 16 17 18 20 21 22 23 24 25 26 27 28 29 31 32 33 34 35 36 37 38 39 40 41 42 43 44 45 46 47 48 49 50 51 52 53 54 55 58 59 60 62 63 64 65 66 67 68 69 70 71 72 73 74 75 76 77 78 79 80 81 82 83 84 85 86 87 89 91 92 93 94 96 98 99 100 101 103 105 106 107 108 110 111 112 114 115 116 117 118 119 121 122 123 124 125 126 127 128 129 130 131 132 133 134 137 138 139 140 141 142 143 144 145 146 147 148 149 150 152 153 154 155 156 157 158 160 161 162 163 164 165 166 167 168 169 170 171 172 173 174 175 176 177 178 179 180 181 182 183 184 185 186 187 188 189 190 191 192 193 194 195 196 197 198 199 200 201 202 203 204 205 206 207 208 209 210 211 213 214 215 216 217 218 219 220 221 222 223 225 226 227 228 229 230 231 232 233 234 235 236 237 238 239 240 241 242 243 244 245 246 247 248 249 250 251 252 253 254 255 256 257 258 259 260 261 262 263 264 265 266 267 268 269 270 271 272 273 274 275 278 279 280 281 282 283 284 285 288 289 290 291 292 293 294 296 297 298 299 300 301 302 303 304 305 306 307 308 309 310 311 312 313 314 315 316 317 318 319 320 321 322 323 324 325 326 327 328 329 330 331 332 333 334 335 336 337 338 339 340 341 342 343 344 345 346 347 348 349 350 351 352 353 354 355 356 357 358 359 362 363 364 365 366 367 370 371 372 373 374 376 377 378 379 380 381 382 383 384 385 386 387 388 389 390 391 392 393 394 395 396 397 398 399 400 401 402 403 404 405 406 407 408 409 410 411 412 413 414 415 416 417 418 419 420 421 422 423 424 425 426 427 429 431 432 433 434 435 436 437 438 439 440 441 442 443 444 445 446 447 448 449 450 451 454 456 457 458 459 460 461 462 463 464 465 466 467 468 469 470 471 472 474 475 476 477 478 479 480 481 482 483 484 485 486 487 488 489 490 491 492 493 494 495 496 497 498 499 500 501 502 503 504 505 506 507 508 509 510 511 512 513 514 515 516 517 518 519 520 521 522 523 524 525 526 527 528 529 530 531 532 533 534 535 536 537 538 539 540 541 542 543 544 545 546 547 548 549 550 551 552 553 554 555 556 557 558 559 560 561 562 563 564 565 566 567 568 569 570 571 572 573 574 575 

SCALARS geom_link_dim int 1
LOOKUP_TABLE default
0 0 0 0 0 0 0 0 0 0 2 0 0 0 0 2 0 0 2 0 0 0 2 0 0 2 0 0 0 0 0 2 0 0 0 0 0 0 0 0 0 0 0 0 2 2 0 2 0 0 2 0 0 0 0 2 0 0 2 0 0 0 2 0 0 0 0 0 0 2 0 0 0 0 0 0 2 0 0 0 0 0 0 2 2 0 0 0 0 0 0 0 0 2 0 0 0 0 0 0 2 0 0 0 0 0 0 0 0 0 2 2 0 0 0 0 0 0 0 0 0 0 0 0 2 0 0 0 0 0 0 0 0 0 0 0 2 0 0 0 0 0 0 0 0 0 0 0 0 0 0 0 0 0 0 0 0 0 0 0 0 0 0 0 0 2 2 0 0 0 0 0 2 2 0 0 0 0 2 2 2 0 0 0 0 0 0 0 0 0 0 0 0 2 0 2 0 0 0 0 0 0 0 0 0 0 0 0 0 0 0 0 2 0 0 0 0 0 0 0 0 0 0 0 0 0 0 2 0 0 0 0 0 0 0 0 0 0 0 0 0 0 0 0 0 0 0 0 0 0 0 0 0 0 0 0 2 2 0 0 0 0 0 0 0 0 0 0 0 0 0 0 2 2 0 0 2 2 0 0 0 0 0 0 0 0 0 0 0 0 0 0 0 0 0 0 0 0 0 0 0 0 0 0 0 0 0 0 0 0 0 0 0 0 0 0 0 0 0 0 0 0 0 0 0 2 2 0 0 0 0 0 0 0 0 2 2 0 0 0 0 0 0 0 0 0 2 2 0 0 0 0 0 0 0 0 0 0 0 0 0 0 0 2 2 0 0 0 0 0 0 0 0 0 0 0 0 0 0 0 0 0 0 0 0 0 0 2 2 0 0 0 0 0 0 0 0 0 0 2 2 0 0 0 0 0 0 0 0 0 0 0 0 0 0 0 0 0 0 0 0 0 2 2 0 0 0 0 0 0 0 0 0 0 0 0 0 0 0 0 2 2 0 0 0 0 0 0 0 0 0 0 0 2 2 0 0 0 0 0 0 0 0 0 0 0 0 0 0 0 0 0 0 0 0 0 0 0 0 0 0 0 0 0 0 0 0 0 0 0 0 0 2 2 0 0 0 0 0 0 0 0 0 0 0 0 0 0 0 0 0 0 0 0 0 0 0 0 0 0 0 0 0 0 0 0 0 0 0 0 0 0 0 0 0 0 0 0 0 0 

SCALARS geom_link_id int 1
LOOKUP_TABLE default
0 0 0 0 0 0 0 0 0 0 30 0 0 0 0 31 0 0 34 0 0 0 34 -1 0 35 0 0 0 0 -1 36 -1 0 0 0 0 0 0 0 -1 0 -1 0 31 35 0 28 0 0 36 0 0 0 0 23 0 0 32 0 0 0 32 0 0 0 0 0 0 33 0 0 0 0 0 0 24 0 0 0 0 0 0 29 31 0 0 0 0 0 0 0 0 28 0 0 0 0 0 0 25 0 0 0 0 0 0 0 0 0 30 32 0 0 0 0 0 0 0 0 0 0 0 0 35 0 0 0 0 0 0 0 0 0 0 0 23 0 0 0 0 0 0 0 0 0 0 0 0 0 0 0 0 0 0 0 0 0 0 0 0 0 0 0 0 28 28 0 0 0 0 0 25 25 0 0 0 0 29 29 34 0 0 0 0 0 -1 0 -1 0 0 0 0 28 0 23 -1 0 -1 0 0 0 0 -1 0 0 -1 0 -1 0 0 0 30 -1 0 -1 0 0 0 0 -1 0 -1 0 0 0 0 36 -1 0 -1 0 0 0 0 0 0 0 0 0 0 0 0 -1 0 -1 0 0 0 0 0 0 0 0 0 0 33 33 0 0 0 0 0 0 -1 0 0 0 0 0 0 0 24 24 0 0 34 34 0 0 0 0 0 0 0 0 0 0 0 0 0 0 0 0 -1 0 0 0 0 -1 0 0 0 -1 0 -1 0 0 0 0 0 0 0 0 0 0 0 0 0 0 0 0 0 0 0 32 32 0 0 0 0 0 0 0 0 33 33 0 0 0 0 -1 0 0 0 0 24 24 0 0 0 0 0 0 -1 0 0 0 0 -1 0 0 0 35 35 0 0 0 0 0 0 0 0 0 0 0 0 0 0 0 0 0 0 0 0 0 0 23 23 0 0 0 0 0 0 0 0 0 0 36 36 0 0 0 0 0 0 0 0 0 0 0 0 0 0 0 0 0 0 0 0 0 30 30 0 0 0 0 0 0 0 0 0 0 0 0 0 0 -1 -1 25 25 -1 -1 -1 -1 -1 -1 -1 -1 -1 -1 -1 31 31 -1 -1 -1 -1 -1 -1 -1 -1 -1 -1 -1 -1 -1 -1 -1 -1 -1 -1 -1 -1 -1 -1 -1 -1 -1 -1 -1 -1 -1 -1 -1 -1 -1 -1 -1 -1 -1 29 29 -1 -1 -1 -1 -1 -1 -1 -1 -1 -1 -1 -1 -1 -1 -1 -1 -1 -1 -1 -1 -1 -1 -1 -1 -1 -1 -1 -1 -1 -1 -1 -1 -1 -1 -1 -1 -1 -1 -1 -1 -1 -1 -1 -1 -1 -1 

