# vtk DataFile Version 3.0
Generated by GMDS VTK Writer

ASCII
DATASET UNSTRUCTURED_GRID
POINTS 48 float
-5 -5 -5
-5 5 -5
5 5 -5
5 -5 -5
-5 -5 5
-5 5 5
5 5 5
5 -5 5
-5 1 -5
-5 1 5
5 1 5
5 1 -5
-5 -5 1
5 -5 1
5 1 1
-5 1 1
5 5 1
-5 5 1
-1 -5 -5
-1 1 -5
-1 1 1
-1 -5 1
-1 1 5
-1 -5 5
-1 5 -5
-1 5 1
-1 5 5
-1 4 -5
-1 4 1
5 4 1
5 4 -5
-5 4 -5
-5 4 1
-5 4 5
-1 4 5
5 4 5
-5 -5 4
-5 1 4
-1 1 4
-1 -5 4
5 1 4
5 -5 4
-1 4 4
-5 4 4
-1 5 4
-5 5 4
5 4 4
5 5 4

CELLS 104 312
2 27 24
2 3 13
2 29 16
2 19 27
2 0 12
2 28 25
2 15 20
2 18 3
2 0 18
2 8 19
2 0 8
2 9 37
2 4 9
2 4 36
2 7 10
2 36 37
2 3 11
2 36 12
2 20 14
2 14 29
2 19 11
2 30 2
2 11 14
2 8 15
2 11 30
2 13 14
2 27 28
2 12 15
2 2 16
2 1 17
2 23 39
2 20 28
2 22 38
2 12 21
2 21 13
2 18 19
2 19 20
2 21 20
2 18 21
2 9 22
2 22 10
2 4 23
2 23 7
2 23 22
2 1 24
2 24 2
2 17 25
2 25 16
2 37 15
2 38 20
2 24 25
2 5 26
2 26 6
2 39 21
2 29 28
2 30 29
2 30 27
2 8 31
2 31 1
2 15 32
2 32 17
2 31 32
2 32 28
2 31 27
2 9 33
2 33 5
2 22 34
2 34 26
2 33 34
2 10 35
2 35 6
2 35 34
2 37 38
2 38 39
2 36 39
2 10 40
2 40 14
2 7 41
2 41 13
2 40 38
2 41 40
2 41 39
2 34 42
2 42 28
2 33 43
2 43 32
2 38 42
2 43 42
2 37 43
2 26 44
2 44 25
2 5 45
2 45 17
2 44 42
2 45 44
2 45 43
2 35 46
2 46 29
2 42 46
2 40 46
2 6 47
2 47 16
2 47 44
2 47 46

CELL_TYPES 104
3 
3 
3 
3 
3 
3 
3 
3 
3 
3 
3 
3 
3 
3 
3 
3 
3 
3 
3 
3 
3 
3 
3 
3 
3 
3 
3 
3 
3 
3 
3 
3 
3 
3 
3 
3 
3 
3 
3 
3 
3 
3 
3 
3 
3 
3 
3 
3 
3 
3 
3 
3 
3 
3 
3 
3 
3 
3 
3 
3 
3 
3 
3 
3 
3 
3 
3 
3 
3 
3 
3 
3 
3 
3 
3 
3 
3 
3 
3 
3 
3 
3 
3 
3 
3 
3 
3 
3 
3 
3 
3 
3 
3 
3 
3 
3 
3 
3 
3 
3 
3 
3 
3 
3 
POINT_DATA 48
SCALARS GMDS_ID int 1
LOOKUP_TABLE default
0 1 2 3 4 5 6 7 8 9 10 11 12 13 14 15 16 17 18 19 20 21 22 23 24 25 26 27 28 29 30 31 32 33 34 35 36 37 38 39 40 41 42 43 44 45 46 47 
SCALARS geom_link_dim int 1
LOOKUP_TABLE default
1 1 1 1 1 1 1 1 2 2 2 2 2 2 3 3 2 2 2 3 0 3 3 2 2 3 2 3 0 3 2 2 3 2 3 2 2 3 0 3 3 2 0 3 3 2 3 2 
SCALARS geom_link_id int 1
LOOKUP_TABLE default
18 20 24 21 17 19 23 22 32 33 24 34 31 29 12 17 25 28 30 13 0 18 10 35 36 11 23 13 0 12 34 32 17 33 10 24 31 17 -1 18 12 29 -1 17 11 28 12 25 


CELL_DATA 104
SCALARS GMDS_ID int 1
LOOKUP_TABLE default
1 2 3 5 6 7 8 9 10 11 12 13 14 15 16 17 18 19 20 21 22 23 24 26 28 29 30 31 32 34 36 37 38 39 40 41 42 43 44 45 46 47 48 50 52 53 54 55 56 57 58 59 60 61 63 64 65 66 67 68 69 70 71 72 73 74 75 76 79 80 81 83 84 85 86 87 88 89 90 91 92 93 94 95 96 97 98 99 100 101 102 103 104 105 106 107 108 109 110 111 112 113 114 115 

SCALARS geom_link_dim int 1
LOOKUP_TABLE default
0 2 0 0 2 0 0 2 2 0 2 0 2 2 2 0 2 2 0 0 0 2 0 0 2 0 0 0 2 2 0 0 0 0 0 0 0 0 0 0 0 2 2 0 2 2 0 0 0 0 0 2 2 0 0 0 0 2 2 0 0 0 0 0 2 2 0 0 0 2 2 0 0 0 0 0 0 2 2 0 0 0 0 0 0 0 0 0 0 0 0 2 2 0 0 0 0 0 0 0 2 2 0 0 

SCALARS geom_link_id int 1
LOOKUP_TABLE default
0 29 0 0 31 0 0 30 30 0 32 -1 33 31 24 -1 34 31 0 0 0 34 0 0 34 0 0 0 25 28 -1 0 -1 0 0 0 0 0 0 0 0 35 35 0 36 36 0 0 -1 -1 0 23 23 -1 0 0 0 32 32 0 0 0 0 0 33 33 0 0 0 24 24 0 -1 -1 -1 -1 -1 29 29 -1 -1 -1 -1 -1 -1 -1 -1 -1 -1 -1 -1 28 28 -1 -1 -1 -1 -1 -1 -1 25 25 -1 -1 

