# vtk DataFile Version 3.0
Generated by GMDS VTK Writer

ASCII
DATASET UNSTRUCTURED_GRID
POINTS 136 float
-5 -5 -5
-5 5 -5
5 5 -5
5 -5 -5
-5 -5 5
-5 5 5
5 5 5
5 -5 5
4 -5 -5
4 5 -5
4 5 5
4 -5 5
-5 3 -5
-5 3 5
4 3 5
4 3 -5
5 3 5
-5 -1 -5
-5 -1 5
4 -1 5
4 -1 -5
5 -1 5
5 -1 -5
-5 -5 -1
4 -5 -1
4 -1 -1
-5 -1 -1
-5 3 -1
4 3 -1
4 5 -1
-5 5 -1
5 5 -1
5 -5 -1
5 -1 -1
1 -5 -1
1 -1 -1
1 -1 5
1 -5 5
0.999999999999999 -5 -5
1 -1 -5
1 5 -5
1 3 -5
1 3 -1
1 5 -1
1 3 5
1 5 5
4 4 -5
5 4 -5
5 4 -1
4 4 -1
5 4 5
4 4 5
-5 4 -5
-5 4 -1
1 4 -1
1 4 -5
-5 4 5
1 4 5
4 4 1
5 4 1
5 5 1
4 5 1
4 3 1
5 3 1
1 -5 1
1 -1 1
4 -1 1
4 -5 1
-5 -5 1
-5 -1 1
5 -5 1
5 -1 1
-5 3 1
1 3 1
1 4 1
-5 4 1
1 5 1
-5 5 1
4 4 4
5 4 4
5 5 4
4 5 4
4 3 4
5 3 4
1 -5 4
1 -1 4
4 -1 4
4 -5 4
-5 -5 4
-5 -1 4
5 -5 4
5 -1 4
-5 3 4
1 3 4
1 4 4
-5 4 4
1 5 4
-5 5 4
-5 1 4
1 1 4
1 1 1
-5 1 1
-5 0.999999999999999 5
1 1 5
1 1 -5
1 1 -1
4 1 -1
4 1 -5
-5 1 -5
-5 1 -1
4 1 4
4 1 1
4 1 5
1 -5 3
1 -1 3
4 -1 3
4 -5 3
4 3 3
5 3 3
5 4 3
4 4 3
5 5 3
4 5 3
1 1 3
-5 1 3
-5 3 3
1 3 3
-5 -1 3
-5 -5 3
5 -5 3
5 -1 3
1 4 3
-5 4 3
1 5 3
-5 5 3
4 1 3

CELLS 316 948
2 4 18
2 17 26
2 0 17
2 11 19
2 58 49
2 113 116
2 37 11
2 26 35
2 23 34
2 36 19
2 28 49
2 8 3
2 15 46
2 9 2
2 10 6
2 46 47
2 11 7
2 113 64
2 35 25
2 84 113
2 4 37
2 20 25
2 61 58
2 83 79
2 103 99
2 37 84
2 47 2
2 34 35
2 82 83
2 60 59
2 8 24
2 39 104
2 16 14
2 34 24
2 8 20
2 114 115
2 82 78
2 47 48
2 37 36
2 49 29
2 7 21
2 16 83
2 3 22
2 0 23
2 21 19
2 18 36
2 22 20
2 49 48
2 24 25
2 46 49
2 23 26
2 12 27
2 14 82
2 15 28
2 81 78
2 9 29
2 1 30
2 6 80
2 48 31
2 60 61
2 46 9
2 80 81
2 2 31
2 50 79
2 31 29
2 59 58
2 115 116
2 117 62
2 3 32
2 22 33
2 51 78
2 32 24
2 25 33
2 32 33
2 0 38
2 38 8
2 17 39
2 39 20
2 38 39
2 39 35
2 38 34
2 1 40
2 40 9
2 12 41
2 41 15
2 27 42
2 42 28
2 30 43
2 43 29
2 36 103
2 41 42
2 103 44
2 40 43
2 13 44
2 44 14
2 5 45
2 45 10
2 61 29
2 82 117
2 83 118
2 114 65
2 16 50
2 50 6
2 14 51
2 51 10
2 79 78
2 51 50
2 80 79
2 52 1
2 27 53
2 53 30
2 42 54
2 54 43
2 41 55
2 55 40
2 52 53
2 53 54
2 55 54
2 52 55
2 49 54
2 46 55
2 13 56
2 56 5
2 44 57
2 57 45
2 10 81
2 56 57
2 51 57
2 102 98
2 62 28
2 102 103
2 62 63
2 63 59
2 62 58
2 100 73
2 64 34
2 69 101
2 65 35
2 65 100
2 66 25
2 99 93
2 67 24
2 65 64
2 66 65
2 67 66
2 67 64
2 85 99
2 68 23
2 101 72
2 69 26
2 68 69
2 69 65
2 68 64
2 98 92
2 70 32
2 89 98
2 71 33
2 70 67
2 66 71
2 70 71
2 99 98
2 72 27
2 18 102
2 73 42
2 116 67
2 113 114
2 72 73
2 87 116
2 62 73
2 102 13
2 74 54
2 75 53
2 73 74
2 75 74
2 72 75
2 76 43
2 100 101
2 77 30
2 76 74
2 77 76
2 77 75
2 58 74
2 61 76
2 36 85
2 19 86
2 11 87
2 85 84
2 86 85
2 87 86
2 87 84
2 4 88
2 18 89
2 88 89
2 89 85
2 88 84
2 7 90
2 21 91
2 90 87
2 86 91
2 90 91
2 13 92
2 44 93
2 85 114
2 86 115
2 92 93
2 115 66
2 82 93
2 57 94
2 56 95
2 93 94
2 95 94
2 92 95
2 45 96
2 5 97
2 96 94
2 97 96
2 97 95
2 78 94
2 81 96
2 104 41
2 35 105
2 105 42
2 25 106
2 106 28
2 20 107
2 107 15
2 105 104
2 106 105
2 107 106
2 107 104
2 17 108
2 108 12
2 26 109
2 109 27
2 108 109
2 109 105
2 108 104
2 86 110
2 110 82
2 66 111
2 111 62
2 99 110
2 100 111
2 19 112
2 112 14
2 112 103
2 112 110
2 105 100
2 106 111
2 109 101
2 118 63
2 79 119
2 119 59
2 78 120
2 120 58
2 117 118
2 119 118
2 120 119
2 120 117
2 80 121
2 121 60
2 81 122
2 122 61
2 119 121
2 121 122
2 120 122
2 99 123
2 123 100
2 98 124
2 124 101
2 92 125
2 125 72
2 93 126
2 126 73
2 124 123
2 125 124
2 125 126
2 126 123
2 89 127
2 127 69
2 114 127
2 127 124
2 114 123
2 88 128
2 128 68
2 128 127
2 113 128
2 90 129
2 129 70
2 91 130
2 130 71
2 116 129
2 115 130
2 129 130
2 94 131
2 131 74
2 95 132
2 132 75
2 126 131
2 131 132
2 125 132
2 96 133
2 133 76
2 97 134
2 134 77
2 131 133
2 133 134
2 132 134
2 117 126
2 120 131
2 122 133
2 110 135
2 135 111
2 115 135
2 123 135
2 117 135

CELL_TYPES 316
3 
3 
3 
3 
3 
3 
3 
3 
3 
3 
3 
3 
3 
3 
3 
3 
3 
3 
3 
3 
3 
3 
3 
3 
3 
3 
3 
3 
3 
3 
3 
3 
3 
3 
3 
3 
3 
3 
3 
3 
3 
3 
3 
3 
3 
3 
3 
3 
3 
3 
3 
3 
3 
3 
3 
3 
3 
3 
3 
3 
3 
3 
3 
3 
3 
3 
3 
3 
3 
3 
3 
3 
3 
3 
3 
3 
3 
3 
3 
3 
3 
3 
3 
3 
3 
3 
3 
3 
3 
3 
3 
3 
3 
3 
3 
3 
3 
3 
3 
3 
3 
3 
3 
3 
3 
3 
3 
3 
3 
3 
3 
3 
3 
3 
3 
3 
3 
3 
3 
3 
3 
3 
3 
3 
3 
3 
3 
3 
3 
3 
3 
3 
3 
3 
3 
3 
3 
3 
3 
3 
3 
3 
3 
3 
3 
3 
3 
3 
3 
3 
3 
3 
3 
3 
3 
3 
3 
3 
3 
3 
3 
3 
3 
3 
3 
3 
3 
3 
3 
3 
3 
3 
3 
3 
3 
3 
3 
3 
3 
3 
3 
3 
3 
3 
3 
3 
3 
3 
3 
3 
3 
3 
3 
3 
3 
3 
3 
3 
3 
3 
3 
3 
3 
3 
3 
3 
3 
3 
3 
3 
3 
3 
3 
3 
3 
3 
3 
3 
3 
3 
3 
3 
3 
3 
3 
3 
3 
3 
3 
3 
3 
3 
3 
3 
3 
3 
3 
3 
3 
3 
3 
3 
3 
3 
3 
3 
3 
3 
3 
3 
3 
3 
3 
3 
3 
3 
3 
3 
3 
3 
3 
3 
3 
3 
3 
3 
3 
3 
3 
3 
3 
3 
3 
3 
3 
3 
3 
3 
3 
3 
3 
3 
3 
3 
3 
3 
3 
3 
3 
3 
3 
3 
3 
3 
3 
3 
3 
3 
3 
3 
3 
3 
3 
3 
3 
3 
3 
3 
3 
3 
3 
3 
3 
3 
3 
3 
POINT_DATA 136
SCALARS GMDS_ID int 1
LOOKUP_TABLE default
0 1 2 3 4 5 6 7 8 9 10 11 12 13 14 15 16 18 19 20 21 22 23 24 25 26 27 28 29 30 31 33 34 35 36 37 38 39 40 41 42 43 44 45 46 47 48 49 50 51 52 53 54 55 56 57 58 59 60 61 62 63 64 65 66 67 68 69 70 71 72 73 74 75 76 77 78 79 80 81 82 83 84 85 86 87 88 89 90 91 92 93 94 95 96 97 98 99 100 101 102 103 104 105 106 107 108 109 110 111 112 113 114 115 116 117 118 119 120 121 122 123 124 125 126 127 128 129 130 131 132 133 134 135 136 137 
SCALARS geom_link_dim int 1
LOOKUP_TABLE default
1 1 1 1 1 1 1 1 2 2 2 2 2 2 2 2 2 2 2 2 2 2 2 2 3 0 3 2 0 2 2 2 2 3 3 0 3 2 2 3 2 3 0 3 3 2 2 2 3 0 2 3 2 2 0 3 2 3 0 3 2 2 0 3 3 0 0 3 2 3 2 3 3 0 0 3 3 2 0 3 2 3 1 3 3 0 0 3 2 3 2 3 3 0 0 3 3 2 3 0 0 3 2 3 3 0 0 2 2 3 0 0 2 3 0 0 3 1 3 3 0 2 3 0 3 3 0 3 2 2 3 0 3 3 2 0 
SCALARS geom_link_id int 1
LOOKUP_TABLE default
18 20 24 21 17 19 23 22 30 36 23 35 32 33 24 34 24 32 33 24 34 24 34 31 18 -1 17 32 -1 25 28 25 29 12 18 0 10 35 30 13 36 13 -1 11 10 23 34 34 12 -1 24 10 32 32 -1 13 33 10 -1 12 25 25 -1 12 18 0 -1 18 31 17 29 12 17 0 0 17 11 28 0 12 25 11 13 12 18 0 -1 18 31 17 29 12 17 -1 0 17 11 28 17 -1 0 17 33 10 13 0 -1 34 32 17 -1 -1 24 18 0 -1 18 14 12 12 0 25 11 -1 17 17 -1 17 31 29 12 0 17 11 28 -1 


CELL_DATA 316
SCALARS GMDS_ID int 1
LOOKUP_TABLE default
0 1 2 4 5 6 8 9 10 11 12 13 14 15 17 18 19 20 21 22 23 24 25 26 27 28 29 30 32 33 34 35 36 37 39 40 41 42 43 44 45 46 47 48 49 50 51 52 53 54 55 56 57 58 59 60 62 63 64 65 66 69 70 71 73 74 75 76 77 79 80 81 82 83 84 85 86 87 88 89 90 91 92 93 94 95 96 97 98 99 100 101 102 103 104 105 106 108 110 111 112 113 114 115 116 117 118 119 121 122 123 124 125 126 127 128 129 130 131 132 133 134 135 136 137 138 140 141 142 143 144 146 147 148 149 150 151 152 153 154 155 156 157 158 159 160 161 162 163 164 165 166 167 168 169 170 171 172 173 174 175 176 177 178 179 180 181 182 183 184 185 187 188 189 190 192 193 194 195 196 197 198 199 201 203 205 207 208 209 210 211 213 215 216 217 218 220 222 223 224 225 227 229 230 231 232 233 234 236 238 239 240 241 243 245 246 247 248 249 250 251 252 253 254 255 256 257 258 259 260 261 262 263 264 265 266 267 268 269 270 271 272 273 275 276 277 278 279 280 281 282 283 284 285 286 287 288 289 290 291 292 293 294 295 296 297 298 299 300 301 302 303 304 305 306 307 308 309 310 311 312 313 314 315 316 317 318 319 320 321 322 323 324 325 326 327 328 329 330 331 332 333 334 335 336 337 338 339 340 341 342 343 344 345 346 347 

SCALARS geom_link_dim int 1
LOOKUP_TABLE default
2 0 2 0 0 0 2 0 0 0 0 2 2 2 2 2 2 0 0 0 2 0 0 0 0 0 2 0 0 0 0 0 2 0 0 0 0 0 0 0 2 0 2 2 2 0 2 0 0 0 0 2 0 0 0 0 2 2 0 2 0 0 2 0 2 0 0 0 2 0 0 0 0 0 2 2 0 0 0 0 0 2 2 0 0 0 0 0 0 0 0 0 0 0 0 2 2 2 2 0 0 2 2 0 0 0 0 0 2 2 0 0 0 0 0 2 0 0 0 0 0 2 2 0 0 0 0 0 0 0 0 0 0 0 0 0 0 0 0 0 0 0 0 0 0 0 0 2 0 0 0 0 0 0 2 0 0 0 0 0 0 0 2 0 0 0 0 0 0 2 0 0 0 0 0 0 0 2 0 0 0 0 0 0 0 0 0 0 0 0 2 0 0 0 0 2 0 0 0 0 0 0 0 0 0 0 0 0 0 0 0 0 0 2 0 0 0 0 0 0 0 0 0 0 2 2 0 0 0 0 2 2 0 0 0 0 0 0 0 0 0 0 0 2 2 0 0 0 0 0 0 0 0 0 0 0 0 0 0 2 2 0 0 0 0 0 0 0 0 0 0 0 0 0 0 0 0 0 0 0 0 0 0 2 2 0 0 2 2 0 0 0 0 0 0 0 0 0 0 0 0 0 0 2 2 0 0 0 0 0 0 0 0 0 0 0 

SCALARS geom_link_id int 1
LOOKUP_TABLE default
33 0 32 0 0 0 35 0 0 0 0 30 34 36 23 34 35 0 0 0 35 0 0 0 0 0 34 0 0 0 0 0 24 0 0 0 0 0 0 0 24 0 34 31 24 0 34 0 0 0 0 32 0 0 0 0 28 25 0 25 0 0 25 0 25 0 0 0 29 0 0 0 0 0 30 30 0 0 0 0 0 36 36 0 0 0 0 0 0 0 0 0 0 0 0 23 23 25 15 0 0 24 24 0 0 0 0 0 32 32 0 0 0 0 0 32 0 0 0 0 0 33 33 0 0 0 0 0 0 0 0 0 0 0 0 0 0 0 0 0 0 0 0 0 0 0 0 31 0 0 0 0 0 0 29 0 0 0 0 0 0 0 33 0 0 0 0 0 0 33 0 0 0 0 0 0 0 28 0 0 0 0 0 0 0 0 0 0 0 0 31 0 0 0 0 29 0 0 0 0 0 0 0 0 0 0 0 0 0 0 0 0 0 28 0 0 0 0 0 0 0 0 0 0 34 34 0 0 0 0 32 32 0 0 0 0 0 0 0 0 0 0 0 24 24 0 0 0 0 0 0 0 0 0 0 0 0 0 0 25 25 0 0 0 0 0 0 0 0 0 0 0 0 0 0 0 0 0 0 0 0 0 0 31 31 0 0 29 29 0 0 0 0 0 0 0 0 0 0 0 0 0 0 28 28 0 0 0 0 0 0 0 0 0 0 0 

