# vtk DataFile Version 3.0
Generated by GMDS VTK Writer

ASCII
DATASET UNSTRUCTURED_GRID
POINTS 180 float
-5 -5 -5
-5 5 -5
5 5 -5
5 -5 -5
-5 -5 5
-5 5 5
5 5 5
5 -5 5
-5 -1 -5
-5 -1 5
5 -1 5
5 -1 -5
-5 -5 -1
5 -5 -1
5 -1 -1
-5 -1 -1
5 5 -1
-5 5 -1
-1 -5 -5
-1 -1 -5
-1 -1 -1
-1 -5 -1
-1 -1 5
-1 -5 5
-1 5 -5
-1 5 -1
-1 5 5
-5 -5 1
-5 -1 1
-1 -1 1
-1 -5 1
5 -1 1
5 -5 1
-5 5 1
-1 5 1
5 5 1
5 0.999999999999999 1
-1 0.999999999999999 1
-1 1 -1
5 0.999999999999999 -1
-1 0.999999999999999 -5
5 0.999999999999999 -5
5 0.999999999999999 5
-1 0.999999999999999 5
-5 1 -5
-5 1 -1
-5 0.999999999999999 1
-5 0.999999999999999 5
1 -1 1
1 -5 1
1 -5 -1
1 -1 -1
1 -1 5
1 -5 5
1 0.999999999999999 -5
1 1 -1
1 5 -1
1 5 -5
1 -1 -5
0.999999999999999 -5 -5
1 1 1
1 5 1
1 0.999999999999999 5
1 5 5
-5 3 -5
-5 3 -1
-1 3 -1
-1 3 -5
-5 3 5
-1 3 5
-1 3 1
-5 3 1
1 3 -1
1 3 -5
5 3 -1
5 3 -5
1 3 1
5 3 1
1 3 5
5 3 5
3 -1 -5
3 -1 -1
3 1 -1
3 0.999999999999999 -5
3 -5 -5
3 -5 -1
3 -5 5
3 -1 5
3 -1 1
3 -5 1
3 0.999999999999999 1
3 0.999999999999999 5
3 5 -5
3 5 -1
3 3 -1
3 3 -5
3 5 1
3 3 1
3 5 5
3 3 5
-5 -5 3
-5 -1 3
-1 -1 3
-1 -5 3
-5 3 3
-1 3 3
-1 0.999999999999999 3
-5 0.999999999999999 3
3 -1 3
3 -5 3
1 -5 3
1 -1 3
-5 5 3
-1 5 3
5 -1 3
5 -5 3
1 0.999999999999999 3
1 5 3
1 3 3
5 0.999999999999999 3
3 0.999999999999999 3
5 5 3
5 3 3
3 3 3
3 5 3
3 -1 4
3 -5 4
1 -5 4
1 -1 4
-5 3 4
-1 3 4
-1 0.999999999999999 4
-5 0.999999999999999 4
-5 -5 4
-5 -1 4
-1 -1 4
-1 -5 4
-5 5 4
-1 5 4
5 -1 4
5 -5 4
1 0.999999999999999 4
1 5 4
1 3 4
5 0.999999999999999 4
3 0.999999999999999 4
5 5 4
5 3 4
3 3 4
3 5 4
-5 4 4
-1 4 4
-1 4 5
-5 4 5
-5 4 3
-1 4 3
-5 4 -5
-5 4 -1
-1 4 -1
-1 4 -5
-5 4 1
-1 4 1
1 4 -1
1 4 -5
1 4 1
5 4 -5
5 4 -1
3 4 -1
3 4 -5
5 4 1
3 4 1
1 4 3
3 4 3
5 4 3
1 4 4
1 4 5
3 4 4
5 4 4
3 4 5
5 4 5

CELLS 444 1332
2 13 85
2 27 12
2 3 13
2 29 20
2 3 84
2 127 53
2 0 12
2 28 15
2 15 20
2 67 66
2 0 18
2 8 19
2 0 8
2 48 49
2 4 9
2 29 48
2 7 10
2 30 49
2 3 11
2 20 51
2 69 43
2 129 68
2 64 67
2 30 21
2 11 14
2 20 38
2 8 15
2 82 83
2 111 128
2 13 14
2 27 28
2 12 15
2 2 16
2 31 36
2 1 17
2 80 83
2 5 153
2 110 127
2 51 50
2 12 21
2 68 47
2 18 19
2 19 20
2 21 20
2 18 21
2 9 22
2 65 45
2 4 23
2 64 44
2 67 40
2 23 22
2 14 39
2 1 24
2 17 25
2 66 38
2 50 49
2 51 48
2 24 25
2 5 26
2 101 102
2 29 37
2 28 29
2 29 30
2 27 30
2 125 126
2 31 14
2 128 52
2 32 13
2 32 31
2 125 87
2 33 17
2 108 125
2 34 25
2 21 50
2 30 103
2 33 34
2 130 131
2 35 16
2 100 101
2 38 37
2 65 66
2 39 36
2 19 40
2 14 81
2 11 41
2 11 80
2 40 38
2 41 39
2 64 65
2 10 42
2 83 54
2 22 43
2 80 81
2 130 69
2 131 43
2 8 44
2 81 51
2 15 45
2 39 82
2 44 45
2 45 38
2 44 40
2 28 46
2 82 55
2 46 37
2 45 46
2 9 47
2 41 83
2 47 43
2 126 86
2 22 52
2 102 103
2 23 53
2 154 104
2 52 53
2 126 127
2 105 130
2 40 54
2 28 101
2 38 55
2 70 105
2 25 56
2 37 106
2 24 57
2 27 100
2 55 54
2 84 59
2 57 56
2 80 58
2 19 58
2 26 152
2 58 51
2 51 55
2 58 54
2 18 59
2 29 102
2 59 58
2 59 50
2 37 60
2 112 154
2 34 61
2 46 107
2 60 55
2 85 50
2 56 61
2 48 60
2 43 62
2 100 103
2 106 131
2 52 62
2 26 63
2 71 104
2 132 47
2 81 82
2 70 37
2 71 46
2 68 69
2 104 129
2 71 70
2 109 126
2 66 70
2 65 71
2 72 55
2 73 54
2 66 72
2 72 73
2 67 73
2 74 39
2 75 41
2 155 105
2 75 74
2 152 69
2 76 60
2 70 76
2 72 76
2 77 36
2 151 130
2 74 77
2 78 62
2 129 130
2 69 78
2 79 42
2 129 132
2 138 151
2 84 80
2 85 81
2 84 85
2 7 86
2 86 53
2 10 87
2 87 52
2 31 88
2 88 48
2 32 89
2 89 49
2 86 87
2 125 128
2 88 89
2 127 128
2 36 90
2 90 60
2 81 88
2 88 90
2 90 82
2 85 89
2 42 91
2 91 62
2 107 132
2 87 91
2 2 92
2 92 57
2 16 93
2 93 56
2 74 94
2 94 72
2 75 95
2 95 73
2 92 93
2 94 95
2 82 94
2 83 95
2 35 96
2 96 61
2 77 97
2 97 76
2 93 96
2 94 97
2 90 97
2 6 98
2 98 63
2 79 99
2 99 78
2 131 132
2 100 133
2 91 99
2 105 104
2 106 105
2 106 107
2 107 104
2 88 108
2 153 150
2 89 109
2 153 152
2 49 110
2 152 151
2 48 111
2 113 155
2 108 109
2 110 109
2 111 110
2 111 108
2 33 112
2 150 129
2 34 113
2 137 150
2 112 113
2 103 110
2 102 111
2 31 114
2 150 151
2 32 115
2 153 68
2 114 115
2 115 109
2 114 108
2 102 106
2 101 107
2 60 116
2 154 155
2 106 116
2 111 116
2 61 117
2 1 156
2 76 118
2 156 64
2 113 117
2 105 118
2 116 118
2 36 119
2 155 151
2 90 120
2 154 150
2 114 119
2 119 120
2 108 120
2 116 120
2 35 121
2 17 157
2 77 122
2 25 158
2 97 123
2 158 66
2 96 124
2 157 65
2 122 123
2 121 124
2 118 123
2 117 124
2 119 122
2 120 123
2 133 4
2 101 134
2 134 9
2 102 135
2 135 22
2 103 136
2 136 23
2 133 134
2 134 135
2 135 136
2 133 136
2 112 137
2 137 5
2 113 138
2 138 26
2 137 138
2 136 127
2 135 128
2 114 139
2 139 10
2 115 140
2 140 7
2 139 140
2 126 140
2 125 139
2 135 131
2 134 132
2 116 141
2 141 62
2 131 141
2 128 141
2 117 142
2 142 63
2 118 143
2 143 78
2 138 142
2 130 143
2 141 143
2 119 144
2 144 42
2 120 145
2 145 91
2 139 144
2 144 145
2 125 145
2 141 145
2 121 146
2 146 6
2 122 147
2 147 79
2 123 148
2 148 99
2 124 149
2 149 98
2 147 148
2 146 149
2 143 148
2 142 149
2 144 147
2 145 148
2 24 159
2 159 67
2 156 157
2 157 158
2 159 158
2 156 159
2 33 160
2 160 71
2 34 161
2 161 70
2 160 161
2 161 155
2 160 154
2 158 161
2 157 160
2 56 162
2 162 72
2 57 163
2 163 73
2 158 162
2 162 163
2 159 163
2 61 164
2 164 76
2 161 164
2 162 164
2 2 165
2 165 75
2 16 166
2 166 74
2 93 167
2 167 94
2 92 168
2 168 95
2 165 166
2 166 167
2 168 167
2 165 168
2 162 167
2 163 168
2 35 169
2 169 77
2 96 170
2 170 97
2 166 169
2 169 170
2 167 170
2 164 170
2 117 171
2 171 118
2 164 171
2 155 171
2 124 172
2 172 123
2 121 173
2 173 122
2 170 172
2 173 172
2 169 173
2 171 172
2 142 174
2 174 143
2 171 174
2 151 174
2 63 175
2 175 78
2 175 174
2 152 175
2 149 176
2 176 148
2 146 177
2 177 147
2 172 176
2 177 176
2 173 177
2 98 178
2 178 99
2 6 179
2 179 79
2 178 176
2 179 178
2 179 177
2 174 176
2 175 178

CELL_TYPES 444
3 
3 
3 
3 
3 
3 
3 
3 
3 
3 
3 
3 
3 
3 
3 
3 
3 
3 
3 
3 
3 
3 
3 
3 
3 
3 
3 
3 
3 
3 
3 
3 
3 
3 
3 
3 
3 
3 
3 
3 
3 
3 
3 
3 
3 
3 
3 
3 
3 
3 
3 
3 
3 
3 
3 
3 
3 
3 
3 
3 
3 
3 
3 
3 
3 
3 
3 
3 
3 
3 
3 
3 
3 
3 
3 
3 
3 
3 
3 
3 
3 
3 
3 
3 
3 
3 
3 
3 
3 
3 
3 
3 
3 
3 
3 
3 
3 
3 
3 
3 
3 
3 
3 
3 
3 
3 
3 
3 
3 
3 
3 
3 
3 
3 
3 
3 
3 
3 
3 
3 
3 
3 
3 
3 
3 
3 
3 
3 
3 
3 
3 
3 
3 
3 
3 
3 
3 
3 
3 
3 
3 
3 
3 
3 
3 
3 
3 
3 
3 
3 
3 
3 
3 
3 
3 
3 
3 
3 
3 
3 
3 
3 
3 
3 
3 
3 
3 
3 
3 
3 
3 
3 
3 
3 
3 
3 
3 
3 
3 
3 
3 
3 
3 
3 
3 
3 
3 
3 
3 
3 
3 
3 
3 
3 
3 
3 
3 
3 
3 
3 
3 
3 
3 
3 
3 
3 
3 
3 
3 
3 
3 
3 
3 
3 
3 
3 
3 
3 
3 
3 
3 
3 
3 
3 
3 
3 
3 
3 
3 
3 
3 
3 
3 
3 
3 
3 
3 
3 
3 
3 
3 
3 
3 
3 
3 
3 
3 
3 
3 
3 
3 
3 
3 
3 
3 
3 
3 
3 
3 
3 
3 
3 
3 
3 
3 
3 
3 
3 
3 
3 
3 
3 
3 
3 
3 
3 
3 
3 
3 
3 
3 
3 
3 
3 
3 
3 
3 
3 
3 
3 
3 
3 
3 
3 
3 
3 
3 
3 
3 
3 
3 
3 
3 
3 
3 
3 
3 
3 
3 
3 
3 
3 
3 
3 
3 
3 
3 
3 
3 
3 
3 
3 
3 
3 
3 
3 
3 
3 
3 
3 
3 
3 
3 
3 
3 
3 
3 
3 
3 
3 
3 
3 
3 
3 
3 
3 
3 
3 
3 
3 
3 
3 
3 
3 
3 
3 
3 
3 
3 
3 
3 
3 
3 
3 
3 
3 
3 
3 
3 
3 
3 
3 
3 
3 
3 
3 
3 
3 
3 
3 
3 
3 
3 
3 
3 
3 
3 
3 
3 
3 
3 
3 
3 
3 
3 
3 
3 
3 
3 
3 
3 
3 
3 
3 
3 
3 
3 
3 
3 
3 
3 
3 
3 
3 
3 
3 
3 
3 
3 
3 
3 
3 
3 
3 
3 
3 
3 
3 
3 
3 
3 
3 
3 
3 
3 
3 
3 
3 
3 
3 
3 
3 
3 
3 
POINT_DATA 180
SCALARS GMDS_ID int 1
LOOKUP_TABLE default
0 1 2 3 4 5 6 7 8 9 10 11 12 13 14 15 16 17 18 19 20 21 22 23 24 25 26 27 28 29 30 31 32 33 34 35 36 37 38 39 40 41 42 43 44 45 46 47 48 49 50 51 52 53 54 55 56 57 58 59 60 61 62 63 64 65 66 67 68 69 70 71 72 73 74 75 76 77 78 79 80 81 82 83 84 85 86 87 88 89 90 91 92 93 94 95 96 97 98 99 100 101 102 103 104 105 106 107 108 109 110 111 112 113 114 115 116 117 118 119 120 121 122 123 124 125 126 127 128 129 130 131 132 133 134 135 136 137 138 139 140 141 142 143 144 145 146 147 148 149 150 151 152 153 154 155 156 157 158 159 160 161 162 163 164 165 166 167 168 169 170 171 172 173 174 175 176 177 178 179 
SCALARS geom_link_dim int 1
LOOKUP_TABLE default
1 1 1 1 1 1 1 1 2 2 2 2 2 2 3 3 2 2 2 3 0 3 3 2 2 3 2 2 3 0 3 3 2 2 3 2 3 0 0 3 3 2 2 3 2 3 3 2 0 3 3 0 3 2 3 0 3 2 3 2 0 3 3 2 2 3 0 3 2 3 0 3 0 3 3 2 0 3 3 2 3 0 0 3 2 3 2 3 0 3 0 3 2 3 0 3 3 0 2 3 2 3 0 3 3 0 0 3 0 3 3 0 2 3 3 2 0 3 0 3 0 2 3 0 3 0 3 3 0 3 0 0 3 2 3 0 3 2 3 3 2 0 3 0 3 0 2 3 0 3 3 0 3 2 3 0 2 3 0 3 3 0 0 3 0 2 3 0 3 3 0 0 0 3 0 3 0 3 3 2 
SCALARS geom_link_id int 1
LOOKUP_TABLE default
18 20 24 21 17 19 23 22 32 33 24 34 31 29 12 17 25 28 30 13 0 18 10 35 36 11 23 31 17 0 18 12 29 28 11 25 12 0 0 12 13 34 24 10 32 17 17 33 0 18 18 0 10 35 13 0 11 36 13 30 0 11 10 23 32 17 0 13 33 10 0 17 0 13 12 34 0 12 10 24 13 0 0 13 30 18 35 10 0 18 0 10 36 11 0 13 11 0 23 10 31 17 0 18 17 0 0 17 0 18 18 0 28 11 12 29 0 11 0 12 0 25 12 0 11 0 18 18 0 17 0 0 17 31 17 0 18 28 11 12 29 0 11 0 12 0 25 12 0 11 17 -1 10 33 17 -1 32 17 -1 13 17 -1 -1 13 -1 34 12 -1 13 12 -1 -1 -1 12 -1 10 -1 12 10 24 


CELL_DATA 444
SCALARS GMDS_ID int 1
LOOKUP_TABLE default
0 1 2 3 4 5 6 7 8 9 10 11 12 13 14 15 16 17 18 19 20 21 22 23 24 25 26 27 28 29 30 31 32 33 34 35 36 37 38 39 40 41 42 43 44 45 46 47 48 49 50 51 52 54 55 56 57 58 59 61 62 63 64 65 66 67 68 69 71 73 74 75 76 77 78 79 80 81 82 84 85 86 87 88 89 90 91 92 93 94 95 96 97 99 100 101 102 103 104 105 106 107 108 109 110 111 112 113 114 115 116 117 118 119 120 121 122 123 124 125 126 127 128 129 130 131 132 133 134 135 136 137 138 139 140 141 142 143 144 145 146 147 148 149 150 151 152 153 154 155 156 157 158 159 161 163 164 165 166 167 168 169 171 173 174 175 176 178 180 181 182 183 185 186 187 189 190 191 193 194 195 197 198 199 200 201 202 203 204 205 206 207 208 209 210 211 212 213 214 215 216 217 218 219 220 221 222 223 224 225 226 227 228 229 230 231 232 233 235 237 238 239 240 241 242 243 245 246 247 248 249 250 251 252 254 255 256 257 258 259 260 261 262 263 264 265 266 267 268 269 270 271 272 273 274 275 278 279 280 281 282 283 284 285 286 287 288 289 290 291 292 293 294 295 296 297 299 300 301 302 303 304 305 306 307 308 309 310 311 312 313 314 315 316 318 320 321 322 323 324 325 326 327 328 329 330 331 332 333 334 335 336 337 338 339 340 343 344 345 346 347 348 349 350 351 352 353 354 355 356 357 358 359 360 361 362 364 365 366 367 368 369 370 371 372 373 374 375 376 377 378 379 380 381 383 385 386 387 388 389 390 391 392 393 394 395 396 397 398 399 400 401 402 403 404 405 406 407 408 409 410 411 412 413 414 415 416 417 418 419 420 421 422 423 424 425 426 427 428 429 430 431 432 433 434 435 436 437 438 439 440 441 442 443 444 445 446 447 448 449 450 451 452 453 454 455 456 457 458 459 460 461 462 463 464 465 466 467 468 469 470 471 472 473 

SCALARS geom_link_dim int 1
LOOKUP_TABLE default
0 0 0 0 0 0 0 0 0 0 0 0 0 0 0 0 2 0 0 0 0 0 0 0 0 0 0 0 0 0 0 0 0 0 0 0 0 0 0 0 0 0 0 0 0 0 0 0 0 0 0 0 0 0 0 0 0 0 2 0 0 0 0 0 0 0 0 0 0 0 0 0 0 0 0 0 0 0 0 0 0 0 0 0 0 0 0 0 0 2 0 0 0 0 0 0 0 0 0 0 0 0 0 0 0 0 0 0 0 0 0 0 0 0 0 0 0 0 0 0 0 0 0 0 0 0 0 0 0 0 0 0 0 0 0 0 0 0 0 0 0 0 0 0 0 0 0 0 0 0 2 0 0 0 0 0 0 0 0 0 0 0 0 0 0 0 0 0 0 0 0 0 0 0 0 0 0 0 0 0 0 2 0 0 0 0 0 0 0 0 0 0 0 0 0 0 0 0 0 0 0 0 0 0 0 0 0 0 0 0 0 0 0 0 0 0 0 0 0 0 0 0 0 0 0 0 0 0 2 2 0 0 0 0 0 0 0 0 0 0 0 0 0 0 0 0 0 0 0 0 0 0 0 0 0 0 0 0 0 0 0 0 0 0 0 0 0 0 0 0 0 0 0 0 0 0 0 0 0 0 0 0 0 0 0 0 0 0 0 0 0 0 0 0 0 0 0 0 0 0 0 0 0 0 0 0 0 0 0 0 0 0 0 0 0 0 0 0 0 0 0 0 0 0 0 0 0 0 0 0 0 0 0 0 0 0 0 0 0 0 0 0 0 0 0 0 0 0 0 0 0 0 0 0 0 0 0 0 0 0 0 0 0 0 0 0 0 0 0 0 0 0 0 0 0 0 0 0 0 0 0 0 0 0 0 0 0 0 0 0 0 0 0 0 0 0 0 0 0 0 0 0 0 0 0 0 0 0 0 0 0 0 0 0 0 0 0 0 0 0 0 0 0 0 0 0 0 0 0 0 0 0 0 0 0 0 0 2 2 0 0 0 0 0 

SCALARS geom_link_id int 1
LOOKUP_TABLE default
0 0 0 0 0 0 0 0 0 0 0 0 0 0 0 0 24 0 0 0 0 0 0 0 0 0 0 0 0 0 0 0 0 0 0 0 -1 0 0 0 0 0 0 0 0 0 0 0 0 0 0 0 0 0 0 0 0 0 23 0 0 0 0 0 0 0 0 0 0 0 0 0 0 0 0 0 0 0 0 0 0 0 0 0 0 0 0 0 0 24 0 0 0 0 0 0 0 0 0 0 0 0 0 0 0 0 0 0 0 0 0 0 0 -1 0 0 0 0 0 0 0 0 0 0 0 0 0 0 0 0 -1 0 0 0 0 0 0 0 0 -1 0 0 0 0 0 0 0 0 0 0 23 0 0 0 0 0 0 0 0 0 0 0 0 0 0 0 0 0 0 -1 0 -1 0 0 0 0 -1 0 0 0 0 24 0 -1 0 0 0 0 0 0 0 0 0 0 0 0 0 0 0 0 0 0 0 0 0 0 0 0 0 0 0 0 0 0 0 0 0 0 0 0 0 0 0 0 0 0 0 0 23 23 0 0 0 0 0 0 0 0 0 0 -1 0 -1 0 -1 0 -1 0 0 0 0 0 -1 0 -1 0 0 0 0 -1 0 -1 0 0 0 0 0 0 -1 0 0 0 -1 0 -1 0 0 0 0 -1 0 -1 0 0 0 0 0 -1 0 -1 0 -1 0 -1 0 0 0 0 0 0 0 0 0 0 0 0 0 0 0 0 0 0 0 0 0 0 0 0 0 0 0 0 0 0 0 0 0 0 0 0 0 0 0 0 0 0 0 0 0 0 0 0 0 0 0 0 0 0 0 0 0 0 0 0 0 0 0 0 0 0 -1 -1 -1 -1 -1 -1 -1 -1 -1 -1 -1 -1 -1 -1 -1 -1 -1 -1 -1 -1 -1 -1 -1 -1 -1 -1 -1 -1 -1 -1 -1 -1 -1 -1 -1 -1 -1 -1 -1 -1 -1 -1 -1 -1 -1 -1 -1 -1 -1 -1 -1 -1 -1 -1 -1 -1 -1 -1 -1 -1 -1 -1 -1 -1 -1 -1 -1 -1 -1 -1 -1 -1 -1 -1 -1 -1 -1 24 24 -1 -1 -1 -1 -1 

