# vtk DataFile Version 3.0
Generated by GMDS VTK Writer

ASCII
DATASET UNSTRUCTURED_GRID
POINTS 100 float
-5 -5 -5
-5 5 -5
5 5 -5
5 -5 -5
-5 -5 5
-5 5 5
5 5 5
5 -5 5
-5 -1 -5
-5 -1 5
5 -1 5
5 -1 -5
-5 -5 -1
5 -5 -1
5 -1 -1
-5 -1 -1
5 5 -1
-5 5 -1
-1 -5 -5
-1 -1 -5
-1 -1 -1
-1 -5 -1
-1 -1 5
-1 -5 5
-1 5 -5
-1 5 -1
-1 5 5
-1 0.999999999999999 -5
-1 1 -1
5 0.999999999999999 -1
5 0.999999999999999 -5
-5 1 -5
-5 1 -1
-5 0.999999999999999 5
-1 0.999999999999999 5
5 0.999999999999999 5
-5 -5 1
-5 -1 1
-1 -1 1
-1 -5 1
5 -1 1
5 -5 1
-1 1 1
-5 1 1
-1 5 1
-5 5 1
5 0.999999999999999 1
5 5 1
1 0.999999999999999 -5
1 1 -1
1 5 -1
1 5 -5
1 -1 -5
1 -1 -1
0.999999999999999 -5 -5
1 -5 -1
1 -1 1
1 -5 1
1 -1 5
1 -5 5
1 0.999999999999999 5
1 1 1
1 5 5
1 5 1
-5 3 -5
-5 3 -1
-1 3 -1
-1 3 -5
1 3 -5
1 3 -1
5 3 -1
5 3 -5
-5 3 5
-1 3 5
-1 3 1
-5 3 1
1 3 1
1 3 5
5 3 1
5 3 5
-5 0.999999999999999 3
-1 0.999999999999999 3
-1 3 3
-5 3 3
-5 -5 3
-5 -1 3
-1 -1 3
-1 -5 3
1 -5 3
1 -1 3
5 -5 3
5 -1 3
1 0.999999999999999 3
5 0.999999999999999 3
-1 5 3
-5 5 3
1 3 3
1 5 3
5 3 3
5 5 3

CELLS 235 705
2 24 51
2 73 82
2 3 13
2 83 75
2 48 49
2 19 27
2 0 12
2 80 81
2 15 20
2 48 68
2 0 18
2 8 19
2 0 8
2 38 20
2 4 9
2 36 12
2 7 10
2 3 11
2 37 15
2 69 50
2 14 29
2 49 69
2 72 83
2 11 14
2 51 2
2 8 15
2 51 50
2 11 30
2 13 14
2 27 28
2 12 15
2 2 16
2 28 49
2 1 17
2 27 48
2 20 28
2 39 21
2 12 21
2 68 51
2 18 19
2 19 20
2 21 20
2 18 21
2 9 22
2 66 25
2 4 23
2 31 64
2 82 74
2 23 22
2 81 82
2 1 24
2 64 1
2 17 25
2 32 65
2 36 37
2 24 25
2 5 26
2 65 17
2 48 30
2 67 64
2 30 29
2 67 66
2 8 31
2 81 42
2 15 32
2 34 81
2 31 32
2 32 28
2 31 27
2 9 33
2 33 80
2 22 34
2 4 84
2 25 50
2 50 16
2 33 34
2 10 35
2 83 82
2 49 29
2 27 67
2 37 38
2 38 39
2 36 39
2 40 14
2 41 13
2 66 65
2 41 40
2 64 65
2 42 28
2 43 32
2 38 42
2 43 42
2 37 43
2 44 25
2 45 17
2 9 85
2 45 44
2 80 43
2 46 29
2 67 24
2 40 46
2 47 16
2 28 66
2 80 83
2 19 52
2 52 11
2 20 53
2 53 14
2 52 53
2 53 49
2 52 48
2 18 54
2 54 3
2 21 55
2 55 13
2 54 52
2 53 55
2 54 55
2 38 56
2 56 40
2 39 57
2 57 41
2 56 57
2 55 57
2 53 56
2 22 58
2 58 10
2 23 59
2 59 7
2 58 59
2 34 60
2 60 35
2 42 61
2 61 46
2 58 60
2 56 61
2 49 61
2 26 62
2 62 6
2 44 63
2 63 47
2 84 36
2 85 37
2 50 63
2 29 70
2 70 16
2 30 71
2 71 2
2 68 69
2 70 69
2 70 71
2 71 68
2 66 69
2 67 68
2 33 72
2 72 5
2 34 73
2 73 26
2 42 74
2 74 44
2 43 75
2 75 45
2 72 73
2 74 75
2 66 74
2 65 75
2 61 76
2 76 63
2 60 77
2 77 62
2 74 76
2 73 77
2 46 78
2 78 47
2 35 79
2 79 6
2 78 76
2 79 77
2 69 76
2 70 78
2 22 86
2 86 38
2 23 87
2 87 39
2 84 85
2 85 86
2 86 87
2 84 87
2 86 81
2 85 80
2 59 88
2 88 57
2 58 89
2 89 56
2 87 88
2 89 88
2 86 89
2 7 90
2 90 41
2 10 91
2 91 40
2 90 88
2 90 91
2 91 89
2 60 92
2 92 61
2 81 92
2 89 92
2 35 93
2 93 46
2 93 92
2 91 93
2 26 94
2 94 44
2 5 95
2 95 45
2 94 82
2 95 94
2 95 83
2 77 96
2 96 76
2 92 96
2 82 96
2 62 97
2 97 63
2 97 96
2 94 97
2 79 98
2 98 78
2 96 98
2 93 98
2 6 99
2 99 47
2 99 97
2 99 98

CELL_TYPES 235
3 
3 
3 
3 
3 
3 
3 
3 
3 
3 
3 
3 
3 
3 
3 
3 
3 
3 
3 
3 
3 
3 
3 
3 
3 
3 
3 
3 
3 
3 
3 
3 
3 
3 
3 
3 
3 
3 
3 
3 
3 
3 
3 
3 
3 
3 
3 
3 
3 
3 
3 
3 
3 
3 
3 
3 
3 
3 
3 
3 
3 
3 
3 
3 
3 
3 
3 
3 
3 
3 
3 
3 
3 
3 
3 
3 
3 
3 
3 
3 
3 
3 
3 
3 
3 
3 
3 
3 
3 
3 
3 
3 
3 
3 
3 
3 
3 
3 
3 
3 
3 
3 
3 
3 
3 
3 
3 
3 
3 
3 
3 
3 
3 
3 
3 
3 
3 
3 
3 
3 
3 
3 
3 
3 
3 
3 
3 
3 
3 
3 
3 
3 
3 
3 
3 
3 
3 
3 
3 
3 
3 
3 
3 
3 
3 
3 
3 
3 
3 
3 
3 
3 
3 
3 
3 
3 
3 
3 
3 
3 
3 
3 
3 
3 
3 
3 
3 
3 
3 
3 
3 
3 
3 
3 
3 
3 
3 
3 
3 
3 
3 
3 
3 
3 
3 
3 
3 
3 
3 
3 
3 
3 
3 
3 
3 
3 
3 
3 
3 
3 
3 
3 
3 
3 
3 
3 
3 
3 
3 
3 
3 
3 
3 
3 
3 
3 
3 
3 
3 
3 
3 
3 
3 
3 
3 
3 
3 
3 
3 
3 
3 
3 
3 
3 
3 
POINT_DATA 100
SCALARS GMDS_ID int 1
LOOKUP_TABLE default
0 1 2 3 4 5 6 7 8 9 10 11 12 13 14 15 16 17 18 19 20 21 22 23 24 25 26 27 28 29 30 31 32 33 34 35 36 37 38 39 40 41 42 43 44 45 46 47 48 49 50 51 52 53 54 55 56 57 58 59 60 61 62 63 64 65 66 67 68 69 70 71 72 73 74 75 76 77 78 79 80 81 82 83 84 85 86 87 88 89 90 91 92 93 94 95 96 97 98 99 
SCALARS geom_link_dim_0 int 1
LOOKUP_TABLE default
0 0 0 0 0 0 0 0 0 0 0 0 0 0 0 0 0 0 0 0 0 0 0 0 0 0 0 0 0 0 0 0 0 0 0 0 0 0 0 0 0 0 0 0 0 0 0 0 0 0 0 0 0 0 0 0 0 0 0 0 0 0 0 0 0 0 0 0 0 0 0 0 0 0 0 0 0 0 0 0 0 0 0 0 0 0 0 0 0 0 0 0 0 0 0 0 0 0 0 0 
SCALARS geom_link_id_0 int 1
LOOKUP_TABLE default
0 0 0 0 0 0 0 0 0 0 0 0 0 0 0 0 0 0 0 0 0 0 0 0 0 0 0 0 0 0 0 0 0 0 0 0 0 0 0 0 0 0 0 0 0 0 0 0 0 0 0 0 0 0 0 0 0 0 0 0 0 0 0 0 0 0 0 0 0 0 0 0 0 0 0 0 0 0 0 0 0 0 0 0 0 0 0 0 0 0 0 0 0 0 0 0 0 0 0 0 


CELL_DATA 235
SCALARS GMDS_ID int 1
LOOKUP_TABLE default
0 1 2 3 4 5 6 7 8 9 10 11 12 13 14 15 16 18 19 20 21 22 23 24 25 26 27 28 29 30 31 32 33 34 35 37 38 39 40 41 42 43 44 45 46 47 48 49 50 51 52 53 54 55 57 58 59 60 62 63 64 65 66 67 68 69 70 71 72 73 74 75 76 77 78 79 80 81 82 83 84 85 86 88 90 91 92 93 95 97 98 99 100 102 104 105 106 107 109 110 111 113 114 115 116 117 118 119 120 121 122 123 124 125 126 127 128 129 130 131 132 133 134 135 136 137 138 139 140 141 144 145 146 147 148 150 151 152 153 154 155 156 157 159 160 161 162 163 164 165 166 167 168 169 170 171 172 173 174 175 176 177 178 180 182 183 184 185 186 187 188 190 191 192 193 194 195 197 198 199 200 201 202 203 204 205 206 207 208 209 210 211 212 213 214 215 216 217 218 219 220 221 222 223 224 225 226 227 228 229 230 231 232 233 234 235 236 237 238 239 240 241 242 243 244 245 246 247 248 249 250 251 252 253 254 

SCALARS geom_link_dim_0 int 1
LOOKUP_TABLE default
0 0 0 0 0 0 0 0 0 0 0 0 0 0 0 0 0 0 0 0 0 0 0 0 0 0 0 0 0 0 0 0 0 0 0 0 0 0 0 0 0 0 0 0 0 0 0 0 0 0 0 0 0 0 0 0 0 0 0 0 0 0 0 0 0 0 0 0 0 0 0 0 0 0 0 0 0 0 0 0 0 0 0 0 0 0 0 0 0 0 0 0 0 0 0 0 0 0 0 0 0 0 0 0 0 0 0 0 0 0 0 0 0 0 0 0 0 0 0 0 0 0 0 0 0 0 0 0 0 0 0 0 0 0 0 0 0 0 0 0 0 0 0 0 0 0 0 0 0 0 0 0 0 0 0 0 0 0 0 0 0 0 0 0 0 0 0 0 0 0 0 0 0 0 0 0 0 0 0 0 0 0 0 0 0 0 0 0 0 0 0 0 0 0 0 0 0 0 0 0 0 0 0 0 0 0 0 0 0 0 0 0 0 0 0 0 0 0 0 0 0 0 0 0 0 0 0 0 0 0 0 0 0 0 0 

SCALARS geom_link_id_0 int 1
LOOKUP_TABLE default
0 0 0 0 0 0 0 0 0 0 0 0 0 0 0 0 0 0 0 0 0 0 0 0 0 0 0 0 0 0 0 0 0 0 0 0 0 0 0 0 0 0 0 0 0 0 0 0 0 0 0 0 0 0 0 0 0 0 0 0 0 0 0 0 0 0 0 0 0 0 0 0 0 0 0 0 0 0 0 0 0 0 0 0 0 0 0 0 0 0 0 0 0 0 0 0 0 0 0 0 0 0 0 0 0 0 0 0 0 0 0 0 0 0 0 0 0 0 0 0 0 0 0 0 0 0 0 0 0 0 0 0 0 0 0 0 0 0 0 0 0 0 0 0 0 0 0 0 0 0 0 0 0 0 0 0 0 0 0 0 0 0 0 0 0 0 0 0 0 0 0 0 0 0 0 0 0 0 0 0 0 0 0 0 0 0 0 0 0 0 0 0 0 0 0 0 0 0 0 0 0 0 0 0 0 0 0 0 0 0 0 0 0 0 0 0 0 0 0 0 0 0 0 0 0 0 0 0 0 0 0 0 0 0 0 

