# vtk DataFile Version 3.0
Generated by GMDS VTK Writer

ASCII
DATASET UNSTRUCTURED_GRID
POINTS 100 float
-5 -5 -5
-5 5 -5
5 5 -5
5 -5 -5
-5 -5 5
-5 5 5
5 5 5
5 -5 5
1 -5 -5
1 5 -5
1 5 5
1 -5 5
-5 4 -5
-5 4 5
1 4 5
1 4 -5
5 4 5
5 4 -5
-5 5 -1
1 5 -1
1 4 -1
-5 4 -1
1 -5 -1
-5 -5 -1
5 5 -1
5 4 -1
5 -5 -1
-5 -1 -5
1 -1 -5
1 -1 -1
-5 -1 -1
1 -1 5
-5 -1 5
5 -1 -5
5 -1 -1
5 -1 5
-0.999999999999999 -1 5
-1 -1 -1
-1 4 -1
-1 4 5
-0.999999999999999 5 -1
-0.999999999999999 5 5
-0.999999999999999 -5 5
-1 -5 -1
-0.999999999999999 5 -5
-1 4 -5
-1 -1 -5
-1 -5 -5
4 5 -5
4 4 -5
4 4 -1
4 5 -1
4 4 5
4 5 5
4 -5 -5
4 -5 -1
4 -1 -1
4 -1 -5
4 -5 5
4 -1 5
-0.999999999999999 5 1
-1 4 1
-5 4 1
-5 5 1
1 5 1
1 4 1
4 5 0.999999999999999
4 4 1
5 5 0.999999999999999
5 4 1
-1 -1 1
-5 -1 1
1 -1 1
1 -5 1
-0.999999999999999 -5 0.999999999999999
-5 -5 0.999999999999999
5 -5 0.999999999999999
5 -1 1
4 -1 1
4 -5 0.999999999999999
1 5 4
1 4 4
-1 4 4
-0.999999999999999 5 4
-5 4 4
-5 5 4
4 5 4
4 4 4
5 5 4
5 4 4
-0.999999999999999 -1 4
-5 -1 4
1 -1 4
1 -5 4
-0.999999999999999 -5 4
-5 -5 4
5 -5 4
5 -1 4
4 -1 4
4 -5 4

CELLS 235 705
2 64 80
2 37 30
2 65 81
2 5 13
2 1 18
2 38 21
2 63 85
2 1 12
2 23 30
2 0 27
2 8 28
2 22 29
2 49 15
2 17 49
2 40 60
2 2 48
2 62 61
2 24 51
2 9 19
2 27 12
2 15 20
2 50 20
2 10 14
2 20 38
2 9 15
2 39 13
2 29 20
2 48 49
2 30 21
2 25 50
2 6 16
2 31 36
2 2 17
2 36 32
2 63 60
2 28 15
2 38 61
2 12 21
2 82 84
2 48 9
2 19 20
2 49 50
2 18 21
2 8 22
2 62 84
2 0 23
2 83 80
2 66 86
2 51 19
2 14 39
2 2 24
2 61 82
2 17 25
2 82 39
2 61 60
2 63 62
2 24 25
2 3 26
2 83 41
2 29 37
2 28 29
2 48 51
2 27 30
2 11 31
2 31 14
2 4 32
2 32 13
2 85 5
2 51 50
2 84 85
2 3 33
2 33 17
2 26 34
2 34 25
2 21 62
2 18 63
2 33 34
2 7 35
2 35 16
2 80 81
2 38 37
2 83 85
2 39 36
2 19 40
2 40 18
2 10 41
2 41 5
2 40 38
2 41 39
2 80 10
2 11 42
2 42 4
2 22 43
2 43 23
2 84 13
2 43 37
2 42 36
2 9 44
2 44 1
2 15 45
2 45 12
2 44 45
2 45 38
2 44 40
2 28 46
2 46 27
2 46 37
2 45 46
2 8 47
2 47 0
2 47 43
2 47 46
2 16 52
2 52 14
2 6 53
2 53 10
2 60 83
2 53 52
2 81 14
2 3 54
2 54 8
2 26 55
2 55 22
2 34 56
2 56 29
2 33 57
2 57 28
2 54 55
2 55 56
2 57 56
2 54 57
2 50 56
2 49 57
2 7 58
2 58 11
2 35 59
2 59 31
2 83 82
2 82 81
2 58 59
2 52 59
2 19 64
2 20 65
2 64 65
2 65 61
2 64 60
2 51 66
2 50 67
2 67 66
2 65 67
2 64 66
2 24 68
2 25 69
2 68 69
2 69 67
2 68 66
2 37 70
2 30 71
2 70 61
2 71 70
2 62 71
2 29 72
2 65 72
2 72 70
2 22 73
2 43 74
2 73 72
2 70 74
2 73 74
2 23 75
2 75 71
2 75 74
2 26 76
2 34 77
2 56 78
2 55 79
2 76 77
2 77 78
2 79 78
2 76 79
2 72 78
2 73 79
2 69 77
2 67 78
2 86 53
2 67 87
2 87 52
2 86 87
2 81 87
2 80 86
2 68 88
2 88 6
2 69 89
2 89 16
2 88 89
2 87 89
2 86 88
2 70 90
2 90 36
2 71 91
2 91 32
2 82 90
2 90 91
2 84 91
2 72 92
2 92 31
2 81 92
2 90 92
2 73 93
2 93 11
2 74 94
2 94 42
2 92 93
2 90 94
2 93 94
2 75 95
2 95 4
2 91 95
2 94 95
2 76 96
2 96 7
2 77 97
2 97 35
2 78 98
2 98 59
2 79 99
2 99 58
2 96 97
2 97 98
2 98 99
2 96 99
2 92 98
2 93 99
2 89 97
2 87 98

CELL_TYPES 235
3 
3 
3 
3 
3 
3 
3 
3 
3 
3 
3 
3 
3 
3 
3 
3 
3 
3 
3 
3 
3 
3 
3 
3 
3 
3 
3 
3 
3 
3 
3 
3 
3 
3 
3 
3 
3 
3 
3 
3 
3 
3 
3 
3 
3 
3 
3 
3 
3 
3 
3 
3 
3 
3 
3 
3 
3 
3 
3 
3 
3 
3 
3 
3 
3 
3 
3 
3 
3 
3 
3 
3 
3 
3 
3 
3 
3 
3 
3 
3 
3 
3 
3 
3 
3 
3 
3 
3 
3 
3 
3 
3 
3 
3 
3 
3 
3 
3 
3 
3 
3 
3 
3 
3 
3 
3 
3 
3 
3 
3 
3 
3 
3 
3 
3 
3 
3 
3 
3 
3 
3 
3 
3 
3 
3 
3 
3 
3 
3 
3 
3 
3 
3 
3 
3 
3 
3 
3 
3 
3 
3 
3 
3 
3 
3 
3 
3 
3 
3 
3 
3 
3 
3 
3 
3 
3 
3 
3 
3 
3 
3 
3 
3 
3 
3 
3 
3 
3 
3 
3 
3 
3 
3 
3 
3 
3 
3 
3 
3 
3 
3 
3 
3 
3 
3 
3 
3 
3 
3 
3 
3 
3 
3 
3 
3 
3 
3 
3 
3 
3 
3 
3 
3 
3 
3 
3 
3 
3 
3 
3 
3 
3 
3 
3 
3 
3 
3 
3 
3 
3 
3 
3 
3 
3 
3 
3 
3 
3 
3 
3 
3 
3 
3 
3 
3 
POINT_DATA 100
SCALARS GMDS_ID int 1
LOOKUP_TABLE default
0 1 2 3 4 5 6 7 8 9 10 11 12 13 14 15 16 17 18 19 20 21 22 23 24 25 26 27 28 29 30 31 32 33 34 35 36 37 38 39 40 41 42 43 44 45 46 47 48 49 50 51 52 53 54 55 56 57 58 59 60 61 62 63 64 65 66 67 68 69 70 71 72 73 74 75 76 77 78 79 80 81 82 83 84 85 86 87 88 89 90 91 92 93 94 95 96 97 98 99 
SCALARS geom_link_dim_0 int 1
LOOKUP_TABLE default
0 0 0 0 0 0 0 0 0 0 0 0 0 0 0 0 0 0 0 0 0 0 0 0 0 0 0 0 0 0 0 0 0 0 0 0 0 0 0 0 0 0 0 0 0 0 0 0 0 0 0 0 0 0 0 0 0 0 0 0 0 0 0 0 0 0 0 0 0 0 0 0 0 0 0 0 0 0 0 0 0 0 0 0 0 0 0 0 0 0 0 0 0 0 0 0 0 0 0 0 
SCALARS geom_link_id_0 int 1
LOOKUP_TABLE default
0 0 0 0 0 0 0 0 0 0 0 0 0 0 0 0 0 0 0 0 0 0 0 0 0 0 0 0 0 0 0 0 0 0 0 0 0 0 0 0 0 0 0 0 0 0 0 0 0 0 0 0 0 0 0 0 0 0 0 0 0 0 0 0 0 0 0 0 0 0 0 0 0 0 0 0 0 0 0 0 0 0 0 0 0 0 0 0 0 0 0 0 0 0 0 0 0 0 0 0 


CELL_DATA 235
SCALARS GMDS_ID int 1
LOOKUP_TABLE default
0 1 2 3 4 5 6 7 8 9 10 11 12 14 15 16 17 18 20 21 22 23 24 25 26 27 28 29 30 31 32 33 34 35 36 37 38 39 40 41 42 43 44 45 46 47 48 49 50 51 52 53 54 55 56 57 58 59 60 62 63 64 65 66 67 68 69 70 71 72 73 74 75 76 77 78 79 80 81 83 84 85 86 87 88 89 90 91 92 93 94 95 96 97 98 99 100 101 102 103 104 105 106 107 108 109 110 111 112 113 114 115 116 117 118 119 120 121 122 123 124 125 126 127 128 129 130 131 132 133 134 135 136 137 138 139 140 141 142 143 144 145 147 149 150 151 152 154 156 157 158 159 161 163 164 165 166 168 170 171 172 173 175 176 177 179 181 182 183 184 186 187 188 190 192 194 196 197 198 199 200 201 202 203 204 205 206 207 208 209 210 211 212 213 214 215 216 217 218 219 220 221 222 223 224 225 226 227 228 229 230 231 232 233 234 235 236 237 238 239 240 241 242 243 244 245 246 247 248 249 250 251 252 253 254 

SCALARS geom_link_dim_0 int 1
LOOKUP_TABLE default
0 0 0 0 0 0 0 0 0 0 0 0 0 0 0 0 0 0 0 0 0 0 0 0 0 0 0 0 0 0 0 0 0 0 0 0 0 0 0 0 0 0 0 0 0 0 0 0 0 0 0 0 0 0 0 0 0 0 0 0 0 0 0 0 0 0 0 0 0 0 0 0 0 0 0 0 0 0 0 0 0 0 0 0 0 0 0 0 0 0 0 0 0 0 0 0 0 0 0 0 0 0 0 0 0 0 0 0 0 0 0 0 0 0 0 0 0 0 0 0 0 0 0 0 0 0 0 0 0 0 0 0 0 0 0 0 0 0 0 0 0 0 0 0 0 0 0 0 0 0 0 0 0 0 0 0 0 0 0 0 0 0 0 0 0 0 0 0 0 0 0 0 0 0 0 0 0 0 0 0 0 0 0 0 0 0 0 0 0 0 0 0 0 0 0 0 0 0 0 0 0 0 0 0 0 0 0 0 0 0 0 0 0 0 0 0 0 0 0 0 0 0 0 0 0 0 0 0 0 0 0 0 0 0 0 

SCALARS geom_link_id_0 int 1
LOOKUP_TABLE default
0 0 0 0 0 0 0 0 0 0 0 0 0 0 0 0 0 0 0 0 0 0 0 0 0 0 0 0 0 0 0 0 0 0 0 0 0 0 0 0 0 0 0 0 0 0 0 0 0 0 0 0 0 0 0 0 0 0 0 0 0 0 0 0 0 0 0 0 0 0 0 0 0 0 0 0 0 0 0 0 0 0 0 0 0 0 0 0 0 0 0 0 0 0 0 0 0 0 0 0 0 0 0 0 0 0 0 0 0 0 0 0 0 0 0 0 0 0 0 0 0 0 0 0 0 0 0 0 0 0 0 0 0 0 0 0 0 0 0 0 0 0 0 0 0 0 0 0 0 0 0 0 0 0 0 0 0 0 0 0 0 0 0 0 0 0 0 0 0 0 0 0 0 0 0 0 0 0 0 0 0 0 0 0 0 0 0 0 0 0 0 0 0 0 0 0 0 0 0 0 0 0 0 0 0 0 0 0 0 0 0 0 0 0 0 0 0 0 0 0 0 0 0 0 0 0 0 0 0 0 0 0 0 0 0 

