# vtk DataFile Version 3.0
Generated by GMDS VTK Writer

ASCII
DATASET UNSTRUCTURED_GRID
POINTS 125 float
-5 -5 -5
-5 5 -5
5 5 -5
5 -5 -5
-5 -5 5
-5 5 5
5 5 5
5 -5 5
-5 1 -5
-5 1 5
5 1 5
5 1 -5
-5 -5 1
5 -5 1
5 1 1
-5 1 1
5 5 1
-5 5 1
-1 -5 -5
-1 1 -5
-1 1 1
-1 -5 1
-1 1 5
-1 -5 5
-1 5 -5
-1 5 1
-1 5 5
-1 4 -5
-1 4 1
5 4 1
5 4 -5
-5 4 -5
-5 4 1
-5 4 5
-1 4 5
5 4 5
-5 -5 4
-5 1 4
-1 1 4
-1 -5 4
5 1 4
5 -5 4
-1 4 4
-5 4 4
-1 5 4
-5 5 4
5 4 4
5 5 4
4 4 -5
4 4 1
4 5 1
4 5 -5
4 1 -5
4 1 1
4 -5 -5
4 -5 1
4 1 4
4 -5 4
4 1 5
4 -5 5
4 4 5
4 4 4
4 5 5
4 5 4
-1 -5 -1
-1 1 -1
4 1 -1
4 -5 -1
-5 -5 -1
-5 1 -1
4 4 -1
5 4 -1
5 1 -1
-1 4 -1
-5 4 -1
-1 5 -1
-5 5 -0.999999999999999
4 5 -1
5 5 -1
5 -5 -1
1 1 4
1 -5 4
1 -5 1
1 1 1
1 1 5
1 -5 5
1 4 5
1 4 4
1 4 1
1 5 5
1 5 4
1 5 1
1 -5 -1
1 1 -1
0.999999999999999 -5 -5
1 1 -5
1 4 -5
1 4 -1
1 5 -5
1 5 -1
-5 -1 -1
-1 -1 -1
-1 -1 1
-5 -1 1
-5 -0.999999999999999 -5
-1 -1 -5
1 -1 5
1 -1 4
4 -1 4
4 -1 5
-1 -1 5
-1 -1 4
-5 -1 4
-5 -1 5
1 -1 1
4 -1 1
5 -1 4
5 -1 1
5 -1 5
5 -1 -5
4 -1 -5
4 -1 -1
5 -1 -1
1 -1 -1
1 -1 -5

CELLS 300 900
2 104 105
2 27 24
2 38 80
2 29 16
2 18 105
2 19 27
2 22 84
2 28 25
2 15 20
2 65 20
2 0 18
2 8 19
2 9 37
2 4 36
2 36 12
2 14 29
2 52 66
2 30 2
2 82 55
2 21 82
2 23 85
2 49 29
2 11 30
2 83 80
2 81 57
2 51 2
2 80 56
2 50 16
2 23 39
2 20 28
2 22 38
2 12 21
2 19 65
2 85 59
2 84 58
2 9 22
2 0 68
2 4 23
2 18 64
2 83 53
2 48 30
2 1 24
2 54 67
2 17 25
2 67 55
2 37 15
2 38 20
2 39 81
2 5 26
2 39 21
2 68 100
2 104 8
2 20 83
2 66 53
2 8 31
2 31 1
2 15 32
2 32 17
2 32 28
2 31 27
2 9 33
2 33 5
2 22 34
2 34 26
2 64 101
2 50 49
2 33 34
2 10 35
2 35 6
2 51 48
2 8 69
2 37 38
2 36 39
2 10 40
2 40 14
2 7 41
2 41 13
2 68 12
2 64 21
2 34 42
2 42 28
2 33 43
2 43 32
2 38 42
2 43 42
2 37 43
2 26 44
2 44 25
2 5 45
2 45 17
2 44 42
2 45 44
2 45 43
2 35 46
2 46 29
2 69 15
2 40 46
2 6 47
2 47 16
2 85 106
2 47 46
2 104 100
2 52 11
2 105 19
2 53 14
2 82 81
2 53 49
2 52 48
2 103 100
2 54 3
2 0 104
2 55 13
2 102 101
2 56 40
2 103 102
2 57 41
2 55 57
2 53 56
2 101 100
2 58 10
2 103 15
2 59 7
2 59 57
2 58 56
2 102 20
2 60 35
2 12 103
2 61 46
2 58 60
2 60 61
2 56 61
2 49 61
2 21 102
2 62 6
2 101 65
2 63 47
2 62 60
2 61 63
2 62 63
2 50 63
2 69 65
2 68 64
2 48 70
2 70 49
2 30 71
2 71 29
2 11 72
2 72 14
2 70 66
2 71 70
2 72 71
2 72 66
2 27 73
2 73 28
2 65 73
2 105 101
2 31 74
2 74 32
2 73 74
2 69 74
2 24 75
2 75 25
2 1 76
2 76 17
2 75 73
2 76 75
2 76 74
2 51 77
2 77 50
2 2 78
2 78 16
2 70 77
2 78 71
2 78 77
2 100 69
2 3 79
2 79 13
2 79 67
2 85 81
2 84 80
2 34 86
2 86 60
2 42 87
2 87 61
2 84 86
2 86 87
2 80 87
2 28 88
2 88 49
2 88 87
2 83 88
2 26 89
2 89 62
2 44 90
2 90 63
2 89 86
2 87 90
2 89 90
2 25 91
2 91 50
2 91 88
2 91 90
2 64 92
2 92 67
2 65 93
2 93 66
2 83 93
2 82 92
2 18 94
2 94 54
2 19 95
2 95 52
2 95 93
2 94 92
2 27 96
2 96 48
2 73 97
2 97 70
2 95 96
2 96 97
2 93 97
2 88 97
2 24 98
2 98 51
2 75 99
2 99 77
2 98 96
2 97 99
2 98 99
2 91 99
2 106 84
2 81 107
2 107 80
2 57 108
2 108 56
2 59 109
2 109 58
2 107 106
2 108 107
2 108 109
2 109 106
2 23 110
2 110 22
2 39 111
2 111 38
2 110 111
2 111 107
2 110 106
2 36 112
2 112 37
2 112 111
2 102 111
2 103 112
2 4 113
2 113 9
2 113 110
2 113 112
2 82 114
2 114 83
2 55 115
2 115 53
2 107 114
2 115 108
2 115 114
2 102 114
2 41 116
2 116 40
2 13 117
2 117 14
2 116 108
2 117 116
2 117 115
2 7 118
2 118 10
2 118 116
2 118 109
2 3 119
2 119 11
2 54 120
2 120 52
2 67 121
2 121 66
2 79 122
2 122 72
2 119 120
2 120 121
2 121 122
2 119 122
2 115 121
2 117 122
2 92 123
2 123 93
2 101 123
2 114 123
2 121 123
2 94 124
2 124 95
2 123 124
2 105 124
2 120 124

CELL_TYPES 300
3 
3 
3 
3 
3 
3 
3 
3 
3 
3 
3 
3 
3 
3 
3 
3 
3 
3 
3 
3 
3 
3 
3 
3 
3 
3 
3 
3 
3 
3 
3 
3 
3 
3 
3 
3 
3 
3 
3 
3 
3 
3 
3 
3 
3 
3 
3 
3 
3 
3 
3 
3 
3 
3 
3 
3 
3 
3 
3 
3 
3 
3 
3 
3 
3 
3 
3 
3 
3 
3 
3 
3 
3 
3 
3 
3 
3 
3 
3 
3 
3 
3 
3 
3 
3 
3 
3 
3 
3 
3 
3 
3 
3 
3 
3 
3 
3 
3 
3 
3 
3 
3 
3 
3 
3 
3 
3 
3 
3 
3 
3 
3 
3 
3 
3 
3 
3 
3 
3 
3 
3 
3 
3 
3 
3 
3 
3 
3 
3 
3 
3 
3 
3 
3 
3 
3 
3 
3 
3 
3 
3 
3 
3 
3 
3 
3 
3 
3 
3 
3 
3 
3 
3 
3 
3 
3 
3 
3 
3 
3 
3 
3 
3 
3 
3 
3 
3 
3 
3 
3 
3 
3 
3 
3 
3 
3 
3 
3 
3 
3 
3 
3 
3 
3 
3 
3 
3 
3 
3 
3 
3 
3 
3 
3 
3 
3 
3 
3 
3 
3 
3 
3 
3 
3 
3 
3 
3 
3 
3 
3 
3 
3 
3 
3 
3 
3 
3 
3 
3 
3 
3 
3 
3 
3 
3 
3 
3 
3 
3 
3 
3 
3 
3 
3 
3 
3 
3 
3 
3 
3 
3 
3 
3 
3 
3 
3 
3 
3 
3 
3 
3 
3 
3 
3 
3 
3 
3 
3 
3 
3 
3 
3 
3 
3 
3 
3 
3 
3 
3 
3 
3 
3 
3 
3 
3 
3 
3 
3 
3 
3 
3 
3 
3 
3 
3 
3 
3 
3 
3 
3 
3 
3 
3 
3 
3 
3 
3 
3 
3 
3 
POINT_DATA 125
SCALARS GMDS_ID int 1
LOOKUP_TABLE default
0 1 2 3 4 5 6 7 8 9 10 11 12 13 14 15 16 17 18 19 20 21 22 23 24 25 26 27 28 29 30 31 32 33 34 35 36 37 38 39 40 41 42 43 44 45 46 47 48 49 50 51 52 53 54 55 56 57 58 59 60 61 62 63 64 65 66 67 68 69 70 71 72 73 74 75 76 77 78 79 80 81 82 83 84 85 86 87 88 89 90 91 92 93 94 95 96 97 98 99 100 101 102 103 104 105 106 107 108 109 110 111 112 113 114 115 116 117 118 119 120 121 122 123 124 
SCALARS geom_link_dim int 1
LOOKUP_TABLE default
1 1 1 1 1 1 1 1 2 2 2 2 2 2 3 3 2 2 2 3 0 3 3 2 2 3 2 3 0 3 2 2 3 2 3 2 2 3 0 3 3 2 0 3 3 2 3 2 3 0 3 2 3 0 2 3 0 3 3 2 3 0 2 3 3 0 0 3 2 3 0 3 3 0 3 3 2 3 2 2 0 3 3 0 3 2 3 0 0 2 3 3 3 0 2 3 3 0 2 3 3 0 0 3 2 3 3 0 0 3 3 0 3 2 0 0 3 3 2 2 3 0 3 0 3 
SCALARS geom_link_id int 1
LOOKUP_TABLE default
18 20 24 21 17 19 23 22 32 33 24 34 31 29 12 17 25 28 30 13 0 18 10 35 36 11 23 13 0 12 34 32 17 33 10 24 31 17 0 18 12 29 0 17 11 28 12 25 13 0 11 36 13 0 30 18 0 18 10 35 10 0 23 11 18 0 0 18 31 17 0 12 12 0 17 11 28 11 25 29 0 18 18 0 10 35 10 0 0 23 11 11 18 0 30 13 13 0 36 11 17 -1 -1 17 32 13 10 -1 -1 10 10 -1 17 33 -1 -1 12 12 24 34 13 -1 12 -1 13 


CELL_DATA 300
SCALARS GMDS_ID int 1
LOOKUP_TABLE default
0 1 2 3 4 5 6 7 8 9 10 11 13 15 19 21 22 23 24 25 26 27 28 30 32 33 34 35 36 37 38 39 40 42 44 45 46 47 48 49 51 52 53 54 55 56 57 58 59 61 62 63 64 65 66 67 68 69 71 72 73 74 75 76 77 78 79 80 81 82 83 84 86 87 88 89 90 91 93 94 95 96 97 98 99 100 101 102 103 104 105 106 107 108 109 110 111 112 113 114 115 116 117 118 119 120 121 122 123 124 125 126 130 131 132 133 135 136 137 138 139 140 142 143 144 145 146 147 148 149 150 151 152 153 154 155 156 157 158 159 161 162 163 164 165 166 167 168 169 170 171 172 173 174 175 176 177 178 179 180 181 182 183 184 185 186 187 188 189 190 191 192 193 194 195 196 197 199 201 202 203 204 205 206 207 208 209 210 211 212 213 214 215 216 217 218 219 220 221 222 223 224 225 226 227 228 230 231 232 233 234 235 237 238 239 240 241 242 243 244 245 246 247 248 249 250 251 252 253 254 255 256 257 258 259 260 261 262 263 264 265 266 267 268 269 270 271 272 273 274 275 276 277 278 279 280 281 282 283 284 285 286 287 288 289 290 291 292 293 294 295 296 297 298 299 300 301 302 303 304 305 306 307 308 309 310 311 312 313 314 315 316 317 318 319 320 321 322 323 324 

SCALARS geom_link_dim int 1
LOOKUP_TABLE default
0 0 0 0 0 0 0 0 0 0 2 0 0 2 2 0 0 2 0 0 2 0 2 0 0 2 0 0 0 0 0 0 0 2 0 0 2 2 0 0 0 2 0 0 0 0 0 0 2 0 0 2 0 0 2 2 0 0 0 0 2 2 0 0 0 0 0 2 2 0 0 0 0 0 0 2 2 2 0 0 0 0 0 0 0 0 0 0 2 2 0 0 0 0 0 0 0 2 2 0 0 0 0 0 0 0 0 0 0 2 2 0 0 0 0 0 0 0 0 0 0 2 0 0 0 0 0 0 0 0 0 0 0 2 0 0 0 0 0 0 0 0 0 0 0 0 0 0 0 0 0 0 0 0 0 0 0 0 0 0 0 0 2 2 0 0 0 0 0 2 2 0 0 0 0 2 2 0 0 0 0 0 0 0 0 0 0 0 0 0 0 2 2 0 0 0 0 0 0 0 0 0 0 0 0 0 0 0 2 2 0 0 0 0 0 0 0 0 0 0 0 0 2 2 0 0 0 0 0 0 0 0 0 0 0 0 0 0 0 0 0 0 0 0 0 0 0 0 0 0 0 0 0 2 2 0 0 0 0 0 0 0 0 0 0 0 0 0 0 0 0 0 2 2 0 0 2 2 0 0 0 0 0 0 0 0 0 0 0 0 0 0 0 0 0 0 0 0 0 0 

SCALARS geom_link_id int 1
LOOKUP_TABLE default
-1 0 0 0 -1 0 0 0 0 0 30 0 0 31 31 0 0 34 0 0 35 0 34 0 0 36 0 0 0 0 0 0 0 35 0 0 31 35 0 0 0 36 0 0 0 0 0 0 23 0 -1 32 0 0 32 32 0 0 0 0 33 33 0 0 -1 0 0 24 24 0 0 0 0 0 0 29 29 31 0 0 0 0 0 0 0 0 0 0 28 28 0 0 0 0 0 0 0 25 25 -1 0 -1 0 -1 0 0 0 0 -1 30 32 0 -1 0 -1 0 0 0 -1 0 -1 35 0 0 -1 0 -1 0 0 0 0 0 -1 23 -1 0 0 0 0 0 0 0 0 0 0 0 0 0 0 0 0 0 0 0 0 -1 0 0 0 0 0 0 28 28 0 0 0 0 0 25 25 0 0 0 -1 29 29 0 0 0 0 0 0 0 0 0 0 0 0 0 0 23 23 0 0 0 0 0 0 0 0 0 0 0 0 0 0 0 30 30 0 0 0 0 0 0 0 0 0 0 0 0 36 36 0 0 0 0 0 0 -1 -1 -1 -1 -1 -1 -1 -1 -1 -1 -1 -1 -1 -1 -1 -1 -1 -1 -1 -1 -1 -1 -1 33 33 -1 -1 -1 -1 -1 -1 -1 -1 -1 -1 -1 -1 -1 -1 -1 -1 -1 24 24 -1 -1 34 34 -1 -1 -1 -1 -1 -1 -1 -1 -1 -1 -1 -1 -1 -1 -1 -1 -1 -1 -1 -1 -1 -1 

