# vtk DataFile Version 3.0
Generated by GMDS VTK Writer

ASCII
DATASET UNSTRUCTURED_GRID
POINTS 80 float
-5 -5 -5
-5 5 -5
5 5 -5
5 -5 -5
-5 -5 5
-5 5 5
5 5 5
5 -5 5
4 -5 -5
4 5 -5
4 5 5
4 -5 5
-5 1 -5
-5 1 5
4 1 5
4 1 -5
5 1 5
5 1 -5
-5 -5 -1
4 -5 -1
4 1 -1
-5 1 -1
4 5 -1
-5 5 -1
5 -5 -1
5 1 -1
5 5 -1
-5 3 -1
4 3 -1
4 3 5
-5 3 5
-5 3 -5
4 3 -5
5 3 -5
5 3 -1
5 3 5
-1 -5 -5
-1 1 -5
-1 1 -1
-1 -5 -1
-1 3 5
-1 3 -1
-1 5 -1
-1 5 5
-1 1 5
-1 -5 5
-1 3 -5
-1 5 -5
5 -5 3
4 -5 3
4 1 3
5 1 3
5 3 3
4 3 3
5 5 3
4 5 3
-5 5 3
-5 3 3
-1 3 3
-1 5 3
-5 1 3
-1 1 3
-5 -5 3
-1 -5 3
4 1 1
5 1 1
5 3 1
4 3 1
5 -5 0.999999999999999
4 -5 1
5 5 0.999999999999999
4 5 1
-5 5 1
-5 3 1
-1 3 1
-1 5 1
-5 1 1
-1 1 1
-5 -5 0.999999999999999
-1 -5 0.999999999999999

CELLS 184 552
2 64 67
2 4 13
2 0 18
2 0 12
2 15 20
2 18 39
2 65 25
2 0 36
2 30 5
2 14 29
2 20 28
2 21 27
2 16 51
2 8 3
2 7 48
2 9 2
2 11 49
2 10 6
2 48 49
2 11 7
2 51 65
2 28 22
2 8 19
2 29 10
2 11 14
2 36 37
2 8 15
2 36 8
2 49 50
2 13 30
2 7 16
2 21 38
2 3 17
2 12 37
2 16 14
2 27 23
2 17 15
2 12 21
2 53 67
2 50 51
2 19 20
2 48 51
2 18 21
2 9 22
2 68 24
2 1 23
2 50 64
2 39 19
2 38 20
2 3 24
2 64 20
2 17 25
2 65 66
2 24 19
2 20 25
2 24 25
2 2 26
2 64 65
2 26 22
2 37 15
2 69 19
2 66 34
2 12 31
2 31 1
2 15 32
2 32 9
2 14 50
2 32 28
2 31 27
2 17 33
2 33 2
2 25 34
2 34 26
2 32 33
2 33 34
2 28 34
2 16 35
2 35 6
2 66 67
2 29 35
2 37 38
2 39 38
2 36 39
2 30 40
2 40 29
2 27 41
2 41 28
2 23 42
2 42 22
2 5 43
2 43 10
2 49 69
2 42 41
2 48 68
2 43 40
2 13 44
2 44 14
2 67 28
2 38 41
2 44 40
2 4 45
2 45 11
2 45 44
2 52 66
2 31 46
2 46 32
2 41 46
2 37 46
2 1 47
2 47 9
2 47 42
2 47 46
2 35 52
2 29 53
2 51 52
2 53 52
2 50 53
2 6 54
2 10 55
2 54 52
2 54 55
2 55 53
2 5 56
2 30 57
2 40 58
2 43 59
2 56 57
2 57 58
2 58 59
2 56 59
2 53 58
2 55 59
2 13 60
2 44 61
2 60 57
2 58 61
2 60 61
2 50 61
2 4 62
2 45 63
2 62 60
2 61 63
2 62 63
2 49 63
2 68 69
2 69 64
2 68 65
2 54 70
2 70 26
2 55 71
2 71 22
2 66 70
2 70 71
2 67 71
2 56 72
2 72 23
2 57 73
2 73 27
2 58 74
2 74 41
2 59 75
2 75 42
2 72 73
2 73 74
2 74 75
2 72 75
2 67 74
2 71 75
2 60 76
2 76 21
2 61 77
2 77 38
2 73 76
2 74 77
2 76 77
2 64 77
2 62 78
2 78 18
2 63 79
2 79 39
2 76 78
2 77 79
2 78 79
2 69 79

CELL_TYPES 184
3 
3 
3 
3 
3 
3 
3 
3 
3 
3 
3 
3 
3 
3 
3 
3 
3 
3 
3 
3 
3 
3 
3 
3 
3 
3 
3 
3 
3 
3 
3 
3 
3 
3 
3 
3 
3 
3 
3 
3 
3 
3 
3 
3 
3 
3 
3 
3 
3 
3 
3 
3 
3 
3 
3 
3 
3 
3 
3 
3 
3 
3 
3 
3 
3 
3 
3 
3 
3 
3 
3 
3 
3 
3 
3 
3 
3 
3 
3 
3 
3 
3 
3 
3 
3 
3 
3 
3 
3 
3 
3 
3 
3 
3 
3 
3 
3 
3 
3 
3 
3 
3 
3 
3 
3 
3 
3 
3 
3 
3 
3 
3 
3 
3 
3 
3 
3 
3 
3 
3 
3 
3 
3 
3 
3 
3 
3 
3 
3 
3 
3 
3 
3 
3 
3 
3 
3 
3 
3 
3 
3 
3 
3 
3 
3 
3 
3 
3 
3 
3 
3 
3 
3 
3 
3 
3 
3 
3 
3 
3 
3 
3 
3 
3 
3 
3 
3 
3 
3 
3 
3 
3 
3 
3 
3 
3 
3 
3 
3 
3 
3 
3 
3 
3 
POINT_DATA 80
SCALARS GMDS_ID int 1
LOOKUP_TABLE default
0 1 2 3 4 5 6 7 8 9 10 11 12 13 14 15 16 17 18 19 20 21 22 23 24 25 26 27 28 29 30 31 32 33 34 35 36 37 38 39 40 41 42 43 44 45 46 47 48 49 50 51 52 53 54 55 56 57 58 59 60 61 62 63 64 65 66 67 68 69 70 71 72 73 74 75 76 77 78 79 
SCALARS geom_link_dim_0 int 1
LOOKUP_TABLE default
0 0 0 0 0 0 0 0 0 0 0 0 0 0 0 0 0 0 0 0 0 0 0 0 0 0 0 0 0 0 0 0 0 0 0 0 0 0 0 0 0 0 0 0 0 0 0 0 0 0 0 0 0 0 0 0 0 0 0 0 0 0 0 0 0 0 0 0 0 0 0 0 0 0 0 0 0 0 0 0 
SCALARS geom_link_id_0 int 1
LOOKUP_TABLE default
0 0 0 0 0 0 0 0 0 0 0 0 0 0 0 0 0 0 0 0 0 0 0 0 0 0 0 0 0 0 0 0 0 0 0 0 0 0 0 0 0 0 0 0 0 0 0 0 0 0 0 0 0 0 0 0 0 0 0 0 0 0 0 0 0 0 0 0 0 0 0 0 0 0 0 0 0 0 0 0 


CELL_DATA 184
SCALARS GMDS_ID int 1
LOOKUP_TABLE default
0 1 2 3 4 5 6 7 8 9 10 11 12 13 14 15 16 17 18 19 20 21 22 23 24 25 26 27 29 30 32 33 34 35 36 37 38 39 40 41 42 43 44 45 46 47 48 49 51 52 53 54 55 56 57 58 59 60 61 62 63 65 66 67 68 69 70 71 72 73 74 75 76 77 78 79 80 81 82 83 84 85 86 87 88 89 90 91 92 93 94 95 96 97 98 99 100 101 102 103 104 105 106 107 108 109 110 111 112 113 114 115 116 118 120 121 122 123 125 127 128 129 130 132 134 136 138 139 140 141 142 143 144 146 148 149 150 151 152 154 156 157 158 159 160 161 162 163 164 165 166 167 168 169 170 171 172 173 174 175 176 177 178 179 180 181 182 183 184 185 186 187 188 189 190 191 192 193 194 195 196 197 198 199 

SCALARS geom_link_dim_0 int 1
LOOKUP_TABLE default
0 0 0 0 0 0 0 0 0 0 0 0 0 0 0 0 0 0 0 0 0 0 0 0 0 0 0 0 0 0 0 0 0 0 0 0 0 0 0 0 0 0 0 0 0 0 0 0 0 0 0 0 0 0 0 0 0 0 0 0 0 0 0 0 0 0 0 0 0 0 0 0 0 0 0 0 0 0 0 0 0 0 0 0 0 0 0 0 0 0 0 0 0 0 0 0 0 0 0 0 0 0 0 0 0 0 0 0 0 0 0 0 0 0 0 0 0 0 0 0 0 0 0 0 0 0 0 0 0 0 0 0 0 0 0 0 0 0 0 0 0 0 0 0 0 0 0 0 0 0 0 0 0 0 0 0 0 0 0 0 0 0 0 0 0 0 0 0 0 0 0 0 0 0 0 0 0 0 0 0 0 0 0 0 

SCALARS geom_link_id_0 int 1
LOOKUP_TABLE default
0 0 0 0 0 0 0 0 0 0 0 0 0 0 0 0 0 0 0 0 0 0 0 0 0 0 0 0 0 0 0 0 0 0 0 0 0 0 0 0 0 0 0 0 0 0 0 0 0 0 0 0 0 0 0 0 0 0 0 0 0 0 0 0 0 0 0 0 0 0 0 0 0 0 0 0 0 0 0 0 0 0 0 0 0 0 0 0 0 0 0 0 0 0 0 0 0 0 0 0 0 0 0 0 0 0 0 0 0 0 0 0 0 0 0 0 0 0 0 0 0 0 0 0 0 0 0 0 0 0 0 0 0 0 0 0 0 0 0 0 0 0 0 0 0 0 0 0 0 0 0 0 0 0 0 0 0 0 0 0 0 0 0 0 0 0 0 0 0 0 0 0 0 0 0 0 0 0 0 0 0 0 0 0 

