# vtk DataFile Version 3.0
Generated by GMDS VTK Writer

ASCII
DATASET UNSTRUCTURED_GRID
POINTS 18 float
-5 -5 -5
-5 5 -5
5 5 -5
5 -5 -5
-5 -5 5
-5 5 5
5 5 5
5 -5 5
-5 1 -5
-5 1 5
5 1 5
5 1 -5
-5 -5 1
5 -5 1
5 1 1
-5 1 1
5 5 1
-5 5 1

CELLS 33 99
2 13 7
2 1 2
2 3 13
2 3 0
2 12 4
2 5 6
2 0 12
2 7 4
2 0 8
2 8 1
2 4 9
2 9 5
2 7 10
2 10 6
2 3 11
2 11 2
2 9 10
2 8 11
2 11 14
2 14 10
2 8 15
2 15 9
2 12 13
2 13 14
2 15 14
2 12 15
2 2 16
2 16 6
2 1 17
2 17 5
2 16 14
2 17 16
2 17 15

CELL_TYPES 33
3 
3 
3 
3 
3 
3 
3 
3 
3 
3 
3 
3 
3 
3 
3 
3 
3 
3 
3 
3 
3 
3 
3 
3 
3 
3 
3 
3 
3 
3 
3 
3 
3 
POINT_DATA 18
SCALARS GMDS_ID int 1
LOOKUP_TABLE default
0 1 2 3 4 5 6 7 8 9 10 11 12 13 14 15 16 17 
SCALARS geom_link_dim int 1
LOOKUP_TABLE default
1 1 1 1 1 1 1 1 2 2 2 2 2 2 3 3 2 2 
SCALARS geom_link_id int 1
LOOKUP_TABLE default
18 20 24 21 17 19 23 22 32 33 24 34 31 29 12 17 25 28 


CELL_DATA 33
SCALARS GMDS_ID int 1
LOOKUP_TABLE default
0 1 2 3 4 5 6 7 12 13 14 15 16 17 18 19 21 23 24 25 26 27 28 29 30 31 32 33 34 35 36 37 38 

SCALARS geom_link_dim int 1
LOOKUP_TABLE default
2 2 2 2 2 2 2 2 2 2 2 2 2 2 2 2 0 0 0 0 0 0 0 0 0 0 2 2 2 2 0 0 0 

SCALARS geom_link_id int 1
LOOKUP_TABLE default
29 36 29 30 31 23 31 35 32 32 33 33 24 24 34 34 0 0 -1 -1 -1 -1 -1 -1 -1 -1 25 25 28 28 -1 -1 -1 

