# vtk DataFile Version 3.0
Generated by GMDS VTK Writer

ASCII
DATASET UNSTRUCTURED_GRID
POINTS 36 float
-5 -5 -5
-5 5 -5
5 5 -5
5 -5 -5
-5 -5 5
-5 5 5
5 5 5
5 -5 5
-5 1 -5
-5 1 5
5 1 5
5 1 -5
-5 -5 1
5 -5 1
5 1 1
-5 1 1
5 5 1
-5 5 1
-1 -5 -5
-1 1 -5
-1 1 1
-1 -5 1
-1 1 5
-1 -5 5
-1 5 -5
-1 5 1
-1 5 5
-1 4 -5
-1 4 1
5 4 1
5 4 -5
-5 4 -5
-5 4 1
-5 4 5
-1 4 5
5 4 5

CELLS 75 225
2 13 7
2 27 24
2 3 13
2 29 16
2 12 4
2 19 27
2 0 12
2 28 25
2 15 20
2 18 3
2 0 18
2 8 19
2 0 8
2 4 9
2 7 10
2 3 11
2 20 14
2 14 29
2 19 11
2 30 2
2 11 14
2 14 10
2 8 15
2 15 9
2 11 30
2 13 14
2 27 28
2 12 15
2 2 16
2 16 6
2 1 17
2 17 5
2 20 28
2 12 21
2 21 13
2 18 19
2 19 20
2 21 20
2 18 21
2 9 22
2 22 10
2 4 23
2 23 7
2 22 20
2 23 22
2 23 21
2 1 24
2 24 2
2 17 25
2 25 16
2 24 25
2 5 26
2 26 6
2 26 25
2 29 28
2 30 29
2 30 27
2 8 31
2 31 1
2 15 32
2 32 17
2 31 32
2 32 28
2 31 27
2 9 33
2 33 5
2 22 34
2 34 26
2 33 32
2 28 34
2 33 34
2 10 35
2 35 6
2 35 29
2 35 34

CELL_TYPES 75
3 
3 
3 
3 
3 
3 
3 
3 
3 
3 
3 
3 
3 
3 
3 
3 
3 
3 
3 
3 
3 
3 
3 
3 
3 
3 
3 
3 
3 
3 
3 
3 
3 
3 
3 
3 
3 
3 
3 
3 
3 
3 
3 
3 
3 
3 
3 
3 
3 
3 
3 
3 
3 
3 
3 
3 
3 
3 
3 
3 
3 
3 
3 
3 
3 
3 
3 
3 
3 
3 
3 
3 
3 
3 
3 
POINT_DATA 36
SCALARS GMDS_ID int 1
LOOKUP_TABLE default
0 1 2 3 4 5 6 7 8 9 10 11 12 13 14 15 16 17 18 19 20 21 22 23 24 25 26 27 28 29 30 31 32 33 34 35 
SCALARS geom_link_dim int 1
LOOKUP_TABLE default
1 1 1 1 1 1 1 1 2 2 2 2 2 2 3 3 2 2 2 3 0 3 3 2 2 3 2 3 0 3 2 2 3 2 3 2 
SCALARS geom_link_id int 1
LOOKUP_TABLE default
18 20 24 21 17 19 23 22 32 33 24 34 31 29 12 17 25 28 30 13 0 18 10 35 36 11 23 13 -1 12 34 32 17 33 10 24 


CELL_DATA 75
SCALARS GMDS_ID int 1
LOOKUP_TABLE default
0 1 2 3 4 5 6 7 8 9 10 11 12 14 16 18 20 21 22 23 24 25 26 27 28 29 30 31 32 33 34 35 37 39 40 41 42 43 44 45 46 47 48 49 50 51 52 53 54 55 58 59 60 62 63 64 65 66 67 68 69 70 71 72 73 74 75 76 77 78 79 80 81 82 83 

SCALARS geom_link_dim int 1
LOOKUP_TABLE default
2 0 2 0 2 0 2 0 0 2 2 0 2 2 2 2 0 0 0 2 0 0 0 0 2 0 0 0 2 2 2 2 0 0 0 0 0 0 0 0 0 2 2 0 0 0 2 2 0 0 0 2 2 0 0 0 0 2 2 0 0 0 0 0 2 2 0 0 0 0 0 2 2 0 0 

SCALARS geom_link_id int 1
LOOKUP_TABLE default
29 -1 29 -1 31 -1 31 -1 0 30 30 0 32 33 24 34 0 -1 0 34 0 0 0 0 34 0 -1 0 25 25 28 28 -1 0 0 0 0 0 0 0 0 35 35 0 0 0 36 36 0 0 0 23 23 0 -1 -1 -1 32 32 -1 -1 -1 -1 -1 33 33 -1 -1 -1 -1 -1 24 24 -1 -1 

