# vtk DataFile Version 3.0
Generated by GMDS VTK Writer

ASCII
DATASET UNSTRUCTURED_GRID
POINTS 80 float
-5 -5 -5
-5 5 -5
5 5 -5
5 -5 -5
-5 -5 5
-5 5 5
5 5 5
5 -5 5
-5 -1 -5
-5 -1 5
5 -1 5
5 -1 -5
-5 -5 -1
5 -5 -1
5 -1 -1
-5 -1 -1
5 5 -1
-5 5 -1
-1 -5 -5
-1 -1 -5
-1 -1 -1
-1 -5 -1
-1 -1 5
-1 -5 5
-1 5 -5
-1 5 -1
-1 5 5
-5 -5 1
-5 -1 1
-1 -1 1
-1 -5 1
5 -1 1
5 -5 1
-5 5 1
-1 5 1
5 5 1
5 0.999999999999999 1
-1 0.999999999999999 1
-1 1 -1
5 0.999999999999999 -1
-1 0.999999999999999 -5
5 0.999999999999999 -5
5 0.999999999999999 5
-1 0.999999999999999 5
-5 1 -5
-5 1 -1
-5 0.999999999999999 1
-5 0.999999999999999 5
1 -1 1
1 -5 1
1 -5 -1
1 -1 -1
1 -1 5
1 -5 5
1 0.999999999999999 -5
1 1 -1
1 5 -1
1 5 -5
1 -1 -5
0.999999999999999 -5 -5
1 1 1
1 5 1
1 0.999999999999999 5
1 5 5
-5 3 -5
-5 3 -1
-1 3 -1
-1 3 -5
-5 3 5
-1 3 5
-1 3 1
-5 3 1
1 3 -1
1 3 -5
5 3 -1
5 3 -5
1 3 1
5 3 1
1 3 5
5 3 5

CELLS 184 552
2 27 12
2 3 13
2 29 20
2 4 27
2 0 12
2 28 15
2 15 20
2 67 66
2 0 18
2 8 19
2 0 8
2 48 49
2 4 9
2 29 48
2 7 10
2 30 49
2 3 11
2 20 51
2 69 43
2 22 29
2 64 67
2 30 21
2 11 14
2 20 38
2 8 15
2 23 30
2 13 14
2 27 28
2 12 15
2 2 16
2 31 36
2 1 17
2 51 14
2 9 28
2 51 50
2 12 21
2 68 47
2 18 19
2 19 20
2 21 20
2 18 21
2 9 22
2 65 45
2 4 23
2 64 44
2 67 40
2 23 22
2 14 39
2 1 24
2 1 64
2 17 25
2 66 38
2 50 49
2 51 48
2 24 25
2 5 26
2 17 65
2 48 31
2 29 37
2 28 29
2 29 30
2 27 30
2 10 31
2 31 14
2 7 32
2 32 13
2 26 69
2 32 31
2 5 68
2 5 33
2 33 17
2 26 34
2 34 25
2 21 50
2 50 13
2 33 34
2 6 35
2 35 16
2 49 32
2 24 67
2 38 37
2 65 66
2 39 36
2 19 40
2 11 41
2 40 38
2 41 39
2 64 65
2 10 42
2 22 43
2 25 66
2 43 37
2 42 36
2 8 44
2 15 45
2 44 45
2 45 38
2 44 40
2 28 46
2 46 37
2 45 46
2 9 47
2 47 43
2 47 46
2 22 52
2 52 10
2 23 53
2 53 7
2 52 53
2 53 49
2 52 48
2 40 54
2 54 41
2 38 55
2 55 39
2 25 56
2 56 16
2 24 57
2 57 2
2 55 54
2 57 56
2 19 58
2 58 11
2 58 51
2 51 55
2 58 54
2 18 59
2 59 3
2 59 58
2 59 50
2 37 60
2 60 36
2 34 61
2 61 35
2 60 55
2 56 61
2 48 60
2 43 62
2 62 42
2 60 62
2 52 62
2 26 63
2 63 6
2 63 61
2 34 70
2 70 37
2 33 71
2 71 46
2 68 69
2 69 70
2 71 70
2 68 71
2 66 70
2 65 71
2 56 72
2 72 55
2 57 73
2 73 54
2 66 72
2 72 73
2 67 73
2 16 74
2 74 39
2 2 75
2 75 41
2 74 72
2 75 74
2 75 73
2 61 76
2 76 60
2 70 76
2 72 76
2 35 77
2 77 36
2 77 76
2 74 77
2 63 78
2 78 62
2 76 78
2 69 78
2 6 79
2 79 42
2 79 77
2 79 78

CELL_TYPES 184
3 
3 
3 
3 
3 
3 
3 
3 
3 
3 
3 
3 
3 
3 
3 
3 
3 
3 
3 
3 
3 
3 
3 
3 
3 
3 
3 
3 
3 
3 
3 
3 
3 
3 
3 
3 
3 
3 
3 
3 
3 
3 
3 
3 
3 
3 
3 
3 
3 
3 
3 
3 
3 
3 
3 
3 
3 
3 
3 
3 
3 
3 
3 
3 
3 
3 
3 
3 
3 
3 
3 
3 
3 
3 
3 
3 
3 
3 
3 
3 
3 
3 
3 
3 
3 
3 
3 
3 
3 
3 
3 
3 
3 
3 
3 
3 
3 
3 
3 
3 
3 
3 
3 
3 
3 
3 
3 
3 
3 
3 
3 
3 
3 
3 
3 
3 
3 
3 
3 
3 
3 
3 
3 
3 
3 
3 
3 
3 
3 
3 
3 
3 
3 
3 
3 
3 
3 
3 
3 
3 
3 
3 
3 
3 
3 
3 
3 
3 
3 
3 
3 
3 
3 
3 
3 
3 
3 
3 
3 
3 
3 
3 
3 
3 
3 
3 
3 
3 
3 
3 
3 
3 
3 
3 
3 
3 
3 
3 
3 
3 
3 
3 
3 
3 
POINT_DATA 80
SCALARS GMDS_ID int 1
LOOKUP_TABLE default
0 1 2 3 4 5 6 7 8 9 10 11 12 13 14 15 16 17 18 19 20 21 22 23 24 25 26 27 28 29 30 31 32 33 34 35 36 37 38 39 40 41 42 43 44 45 46 47 48 49 50 51 52 53 54 55 56 57 58 59 60 61 62 63 64 65 66 67 68 69 70 71 72 73 74 75 76 77 78 79 
SCALARS geom_link_dim int 1
LOOKUP_TABLE default
1 1 1 1 1 1 1 1 2 2 2 2 2 2 3 3 2 2 2 3 0 3 3 2 2 3 2 2 3 0 3 3 2 2 3 2 3 0 0 3 3 2 2 3 2 3 3 2 0 3 3 0 3 2 3 0 3 2 3 2 0 3 3 2 2 3 0 3 2 3 0 3 0 3 3 2 0 3 3 2 
SCALARS geom_link_id int 1
LOOKUP_TABLE default
18 20 24 21 17 19 23 22 32 33 24 34 31 29 12 17 25 28 30 13 0 18 10 35 36 11 23 31 17 0 18 12 29 28 11 25 12 0 0 12 13 34 24 10 32 17 17 33 0 18 18 0 10 35 13 0 11 36 13 30 0 11 10 23 32 17 -1 13 33 10 -1 17 -1 13 12 34 -1 12 10 24 


CELL_DATA 184
SCALARS GMDS_ID int 1
LOOKUP_TABLE default
1 2 3 5 6 7 8 9 10 11 12 13 14 15 16 17 18 19 20 21 22 23 24 25 26 28 29 30 31 32 33 34 36 37 38 39 40 41 42 43 44 45 46 47 48 49 50 51 52 53 54 55 56 57 58 59 60 61 62 63 64 65 66 67 68 69 70 71 72 73 74 75 76 77 78 79 80 81 82 83 84 85 86 87 89 91 92 93 94 96 98 99 100 101 103 105 106 107 108 110 111 112 114 115 116 117 118 119 120 121 122 123 124 125 126 127 128 129 130 131 133 135 136 137 138 139 140 141 142 143 144 145 146 147 148 150 151 152 153 154 155 156 157 158 160 161 162 163 164 165 166 167 168 169 170 171 172 173 174 175 176 177 178 179 180 181 182 183 184 185 186 187 188 189 190 191 192 193 194 195 196 197 198 199 

SCALARS geom_link_dim int 1
LOOKUP_TABLE default
0 0 0 0 0 0 0 0 0 0 0 0 0 0 2 0 0 0 0 0 0 0 0 0 0 0 0 0 0 0 0 0 0 0 0 0 0 0 0 0 0 0 0 0 0 0 0 0 0 0 0 0 0 0 0 2 0 0 0 0 0 0 0 0 0 0 0 0 0 0 0 0 0 0 0 0 0 0 0 0 0 0 0 0 0 0 0 0 2 0 0 0 0 0 0 0 0 0 0 0 0 0 0 0 0 0 0 0 0 0 0 0 0 0 0 0 0 0 0 0 0 0 0 0 0 0 0 0 0 0 0 0 0 0 0 0 0 0 0 0 0 2 2 0 0 0 0 0 0 0 0 0 0 0 0 0 0 0 0 0 0 0 0 0 0 0 0 0 0 0 0 0 0 0 0 0 0 0 0 0 2 2 0 0 

SCALARS geom_link_id int 1
LOOKUP_TABLE default
0 0 0 0 0 0 0 -1 0 0 0 0 0 0 24 0 0 0 -1 0 -1 0 0 0 0 0 0 0 0 0 0 0 0 0 0 0 -1 0 0 0 0 0 -1 0 -1 -1 0 0 0 -1 0 -1 0 0 0 23 -1 0 0 0 0 0 0 0 0 0 -1 0 -1 0 0 0 0 0 0 0 0 0 0 -1 0 -1 0 0 0 0 0 -1 24 0 -1 0 0 0 0 0 0 0 0 0 0 0 0 0 0 0 0 0 0 0 0 0 0 0 0 0 0 0 0 0 0 0 0 0 0 0 0 0 0 0 0 0 0 0 0 0 0 0 0 0 0 23 23 0 -1 -1 -1 -1 -1 -1 -1 -1 -1 -1 -1 -1 -1 -1 -1 -1 -1 -1 -1 -1 -1 -1 -1 -1 -1 -1 -1 -1 -1 -1 -1 -1 -1 -1 -1 -1 24 24 -1 -1 

