# vtk DataFile Version 3.0
Generated by GMDS VTK Writer

ASCII
DATASET UNSTRUCTURED_GRID
POINTS 136 float
-5 -5 -5
-5 5 -5
5 5 -5
5 -5 -5
-5 -5 5
-5 5 5
5 5 5
5 -5 5
4 -5 -5
4 5 -5
4 5 5
4 -5 5
-5 3 -5
-5 3 5
4 3 5
4 3 -5
5 3 5
-5 -1 -5
-5 -1 5
4 -1 5
4 -1 -5
5 -1 5
5 -1 -5
-5 -5 -1
4 -5 -1
4 -1 -1
-5 -1 -1
-5 3 -1
4 3 -1
4 5 -1
-5 5 -1
5 5 -1
5 -5 -1
5 -1 -1
1 -5 -1
1 -1 -1
1 -1 5
1 -5 5
0.999999999999999 -5 -5
1 -1 -5
1 5 -5
1 3 -5
1 3 -1
1 5 -1
1 3 5
1 5 5
4 4 -5
5 4 -5
5 4 -1
4 4 -1
5 4 5
4 4 5
-5 4 -5
-5 4 -1
1 4 -1
1 4 -5
-5 4 5
1 4 5
4 4 1
5 4 1
5 5 1
4 5 1
4 3 1
5 3 1
1 -5 1
1 -1 1
4 -1 1
4 -5 1
-5 -5 1
-5 -1 1
5 -5 1
5 -1 1
-5 3 1
1 3 1
1 4 1
-5 4 1
1 5 1
-5 5 1
4 4 4
5 4 4
5 5 4
4 5 4
4 3 4
5 3 4
1 -5 4
1 -1 4
4 -1 4
4 -5 4
-5 -5 4
-5 -1 4
5 -5 4
5 -1 4
-5 3 4
1 3 4
1 4 4
-5 4 4
1 5 4
-5 5 4
-5 1 4
1 1 4
1 1 1
-5 1 1
-5 0.999999999999999 5
1 1 5
1 1 -5
1 1 -1
4 1 -1
4 1 -5
-5 1 -5
-5 1 -1
4 1 4
4 1 1
4 1 5
1 -5 3
1 -1 3
4 -1 3
4 -5 3
4 3 3
5 3 3
5 4 3
4 4 3
5 5 3
4 5 3
1 1 3
-5 1 3
-5 3 3
1 3 3
-5 -1 3
-5 -5 3
5 -5 3
5 -1 3
1 4 3
-5 4 3
1 5 3
-5 5 3
4 1 3

CELLS 243 1215
4 12 27 53 52 
4 4 37 84 88 
4 38 39 35 34 
4 38 34 24 8 
4 18 36 85 89 
4 0 23 34 38 
4 51 50 6 10 
4 39 35 25 20 
4 17 26 35 39 
4 14 16 50 51 
4 38 39 20 8 
4 0 17 39 38 
4 4 18 89 88 
4 84 85 86 87 
4 0 17 26 23 
4 11 37 84 87 
4 37 36 19 11 
4 17 39 104 108 
4 46 47 48 49 
4 4 18 36 37 
4 11 19 86 87 
4 62 63 59 58 
4 46 49 29 9 
4 19 36 85 86 
4 7 11 19 21 
4 8 20 25 24 
4 34 35 25 24 
4 15 28 49 46 
4 3 8 20 22 
4 49 48 31 29 
4 23 26 35 34 
4 62 58 49 28 
4 109 105 42 27 
4 47 48 31 2 
4 26 35 105 109 
4 46 47 2 9 
4 2 9 29 31 
4 36 37 84 85 
4 108 109 27 12 
4 58 59 60 61 
4 121 122 61 60 
4 82 83 79 78 
4 80 81 122 121 
4 3 8 24 32 
4 14 51 78 82 
4 20 22 33 25 
4 3 22 33 32 
4 16 50 79 83 
4 32 24 25 33 
4 61 58 49 29 
4 17 26 109 108 
4 12 27 42 41 
4 41 42 28 15 
4 104 105 106 107 
4 1 30 43 40 
4 40 43 29 9 
4 14 16 83 82 
4 107 104 41 15 
4 78 79 80 81 
4 20 39 104 107 
4 119 121 60 59 
4 79 80 121 119 
4 117 118 119 120 
4 120 117 62 58 
4 78 82 117 120 
4 120 119 59 58 
4 78 79 119 120 
4 10 51 78 81 
4 52 53 30 1 
4 27 42 54 53 
4 53 54 43 30 
4 41 42 54 55 
4 55 54 43 40 
4 12 41 55 52 
4 52 55 40 1 
4 52 53 54 55 
4 28 42 54 49 
4 49 54 43 29 
4 15 41 55 46 
4 46 55 40 9 
4 55 54 49 46 
4 6 10 81 80 
4 6 50 79 80 
4 13 44 57 56 
4 56 57 45 5 
4 14 44 57 51 
4 51 57 45 10 
4 50 51 78 79 
4 65 64 34 35 
4 107 106 28 15 
4 66 65 35 25 
4 20 25 106 107 
4 67 66 25 24 
4 106 105 42 28 
4 67 64 34 24 
4 64 65 66 67 
4 25 35 105 106 
4 68 69 26 23 
4 105 104 41 42 
4 69 65 35 26 
4 35 39 104 105 
4 68 64 34 23 
4 68 69 65 64 
4 102 103 99 98 
4 70 67 24 32 
4 102 98 92 13 
4 66 71 33 25 
4 18 89 98 102 
4 70 71 33 32 
4 70 67 66 71 
4 103 99 93 44 
4 119 118 63 59 
4 36 85 99 103 
4 79 83 118 119 
4 102 103 44 13 
4 72 73 42 27 
4 117 118 63 62 
4 18 36 103 102 
4 82 83 118 117 
4 62 73 42 28 
4 113 114 115 116 
4 73 74 54 42 
4 75 74 54 53 
4 100 101 72 73 
4 72 75 53 27 
4 72 73 74 75 
4 65 69 101 100 
4 76 74 54 43 
4 77 76 43 30 
4 77 75 53 30 
4 75 74 76 77 
4 99 98 92 93 
4 58 74 54 49 
4 62 73 74 58 
4 85 89 98 99 
4 61 76 43 29 
4 58 74 76 61 
4 88 89 85 84 
4 7 11 87 90 
4 19 21 91 86 
4 7 21 91 90 
4 90 87 86 91 
4 113 116 67 64 
4 84 87 116 113 
4 115 116 67 66 
4 86 87 116 115 
4 13 44 93 92 
4 114 115 66 65 
4 85 86 115 114 
4 113 114 65 64 
4 14 44 93 82 
4 84 85 114 113 
4 44 57 94 93 
4 56 57 94 95 
4 13 56 95 92 
4 92 93 94 95 
4 45 57 94 96 
4 5 45 96 97 
4 5 56 95 97 
4 95 94 96 97 
4 51 57 94 78 
4 82 93 94 78 
4 10 45 96 81 
4 78 94 96 81 
4 108 104 41 12 
4 108 109 105 104 
4 85 86 110 99 
4 99 110 82 93 
4 65 66 111 100 
4 100 111 62 73 
4 19 36 103 112 
4 112 103 44 14 
4 19 86 110 112 
4 112 110 82 14 
4 112 103 99 110 
4 35 65 100 105 
4 105 100 73 42 
4 25 66 111 106 
4 106 111 62 28 
4 111 100 105 106 
4 26 69 101 109 
4 109 101 72 27 
4 101 100 105 109 
4 78 81 122 120 
4 120 122 61 58 
4 120 119 121 122 
4 98 99 123 124 
4 124 123 100 101 
4 125 124 101 72 
4 92 93 126 125 
4 125 126 73 72 
4 93 99 123 126 
4 126 123 100 73 
4 123 124 125 126 
4 85 89 127 114 
4 114 127 69 65 
4 89 98 124 127 
4 127 124 101 69 
4 85 99 123 114 
4 114 123 100 65 
4 114 127 124 123 
4 88 89 127 128 
4 128 127 69 68 
4 84 88 128 113 
4 113 128 68 64 
4 128 127 114 113 
4 87 90 129 116 
4 116 129 70 67 
4 86 91 130 115 
4 115 130 71 66 
4 90 91 130 129 
4 129 130 71 70 
4 129 116 115 130 
4 93 94 131 126 
4 126 131 74 73 
4 94 95 132 131 
4 131 132 75 74 
4 92 95 132 125 
4 125 132 75 72 
4 125 126 131 132 
4 94 96 133 131 
4 131 133 76 74 
4 96 97 134 133 
4 133 134 77 76 
4 95 97 134 132 
4 132 134 77 75 
4 132 131 133 134 
4 82 93 126 117 
4 117 126 73 62 
4 78 94 131 120 
4 120 131 74 58 
4 117 126 131 120 
4 81 96 133 122 
4 122 133 76 61 
4 120 131 133 122 
4 86 110 135 115 
4 115 135 111 66 
4 99 110 135 123 
4 123 135 111 100 
4 114 115 135 123 
4 82 110 135 117 
4 117 135 111 62 
4 123 135 117 126 

CELL_TYPES 243
9 
9 
9 
9 
9 
9 
9 
9 
9 
9 
9 
9 
9 
9 
9 
9 
9 
9 
9 
9 
9 
9 
9 
9 
9 
9 
9 
9 
9 
9 
9 
9 
9 
9 
9 
9 
9 
9 
9 
9 
9 
9 
9 
9 
9 
9 
9 
9 
9 
9 
9 
9 
9 
9 
9 
9 
9 
9 
9 
9 
9 
9 
9 
9 
9 
9 
9 
9 
9 
9 
9 
9 
9 
9 
9 
9 
9 
9 
9 
9 
9 
9 
9 
9 
9 
9 
9 
9 
9 
9 
9 
9 
9 
9 
9 
9 
9 
9 
9 
9 
9 
9 
9 
9 
9 
9 
9 
9 
9 
9 
9 
9 
9 
9 
9 
9 
9 
9 
9 
9 
9 
9 
9 
9 
9 
9 
9 
9 
9 
9 
9 
9 
9 
9 
9 
9 
9 
9 
9 
9 
9 
9 
9 
9 
9 
9 
9 
9 
9 
9 
9 
9 
9 
9 
9 
9 
9 
9 
9 
9 
9 
9 
9 
9 
9 
9 
9 
9 
9 
9 
9 
9 
9 
9 
9 
9 
9 
9 
9 
9 
9 
9 
9 
9 
9 
9 
9 
9 
9 
9 
9 
9 
9 
9 
9 
9 
9 
9 
9 
9 
9 
9 
9 
9 
9 
9 
9 
9 
9 
9 
9 
9 
9 
9 
9 
9 
9 
9 
9 
9 
9 
9 
9 
9 
9 
9 
9 
9 
9 
9 
9 
9 
9 
9 
9 
9 
9 
9 
9 
9 
9 
9 
9 
POINT_DATA 136
SCALARS GMDS_ID int 1
LOOKUP_TABLE default
0 1 2 3 4 5 6 7 8 9 10 11 12 13 14 15 16 18 19 20 21 22 23 24 25 26 27 28 29 30 31 33 34 35 36 37 38 39 40 41 42 43 44 45 46 47 48 49 50 51 52 53 54 55 56 57 58 59 60 61 62 63 64 65 66 67 68 69 70 71 72 73 74 75 76 77 78 79 80 81 82 83 84 85 86 87 88 89 90 91 92 93 94 95 96 97 98 99 100 101 102 103 104 105 106 107 108 109 110 111 112 113 114 115 116 117 118 119 120 121 122 123 124 125 126 127 128 129 130 131 132 133 134 135 136 137 
SCALARS geom_link_dim int 1
LOOKUP_TABLE default
1 1 1 1 1 1 1 1 2 2 2 2 2 2 2 2 2 2 2 2 2 2 2 2 3 0 3 3 0 2 2 2 2 3 3 0 3 2 2 3 2 3 0 3 3 2 2 2 3 0 2 3 2 3 0 3 2 3 0 3 2 2 0 3 3 0 0 3 2 3 2 3 3 0 0 3 3 2 0 3 2 3 1 3 3 0 0 3 2 3 2 3 3 0 0 3 3 2 3 0 0 3 2 3 3 0 0 2 2 3 0 0 2 3 0 0 3 1 3 3 0 2 3 0 3 3 0 3 2 2 3 0 3 3 2 0 
SCALARS geom_link_id int 1
LOOKUP_TABLE default
18 20 24 21 17 19 23 22 30 36 23 35 32 33 24 34 24 32 33 24 34 24 34 31 18 -1 17 17 -1 25 28 25 29 12 18 0 10 35 30 13 36 13 0 11 10 23 34 34 12 -1 24 10 32 17 0 13 33 10 -1 12 25 25 -1 12 18 0 -1 18 31 17 29 12 17 0 0 17 11 28 0 12 25 11 13 12 18 0 -1 18 31 17 29 12 17 -1 0 17 11 28 17 -1 0 17 33 10 13 0 -1 34 32 17 -1 -1 24 18 0 -1 18 14 12 12 0 25 11 -1 17 17 -1 17 31 29 12 0 17 11 28 -1 


CELL_DATA 243
SCALARS GMDS_ID int 1
LOOKUP_TABLE default
0 1 3 4 5 6 7 8 9 10 11 12 14 15 17 18 19 21 22 23 24 25 27 28 29 30 31 32 33 34 35 37 38 39 42 43 46 47 49 50 51 52 53 56 57 58 60 61 62 63 64 65 66 68 69 70 73 74 76 78 79 80 81 82 83 84 85 86 87 88 89 90 91 92 93 94 95 96 97 98 99 101 103 104 105 107 108 109 110 111 112 113 114 115 116 117 118 119 120 121 122 123 124 125 126 127 128 129 130 131 132 133 134 135 136 137 138 139 140 142 143 145 147 148 149 150 151 152 154 156 157 158 159 160 161 162 163 165 166 168 170 172 173 174 175 176 177 179 180 181 182 184 185 187 189 191 192 194 196 198 199 201 202 204 205 206 207 208 209 210 214 215 216 217 218 219 220 221 222 223 224 225 226 227 228 229 230 231 233 234 235 236 237 238 239 240 241 242 243 244 245 246 247 248 249 250 251 252 253 254 255 256 257 258 259 260 261 262 263 264 265 266 267 268 269 270 271 272 273 274 275 276 277 278 279 280 281 282 283 284 285 286 287 

SCALARS geom_link_dim int 1
LOOKUP_TABLE default
0 0 0 0 0 0 0 0 0 0 0 0 0 0 0 0 0 0 0 0 0 0 0 0 0 0 0 0 0 0 0 0 0 0 0 0 0 0 0 0 0 0 0 0 0 0 0 0 0 0 0 0 0 0 0 0 0 0 0 0 0 0 0 0 0 0 0 0 0 0 0 0 0 0 0 0 0 0 0 0 0 0 0 0 0 0 0 0 0 0 0 0 0 0 0 0 0 0 0 0 0 0 0 0 0 0 0 0 0 0 0 0 0 0 0 0 0 0 0 0 0 0 0 0 0 0 0 0 0 0 0 0 0 0 0 0 0 0 0 0 0 0 0 0 0 0 0 0 0 0 0 0 0 0 0 0 0 0 0 0 0 0 0 0 0 0 0 0 0 0 0 0 0 0 0 0 0 0 0 0 0 0 0 0 0 0 0 0 0 0 0 0 0 0 0 0 0 0 0 0 0 0 0 0 0 0 0 0 0 0 0 0 0 0 0 0 0 0 0 0 0 0 0 0 0 0 0 0 0 0 0 0 0 0 0 0 0 0 0 0 0 0 0 

SCALARS geom_link_id int 1
LOOKUP_TABLE default
0 0 0 0 0 0 0 0 0 0 0 0 0 0 0 0 0 0 0 0 0 0 0 0 0 0 0 0 0 0 0 0 0 0 0 0 0 0 0 0 0 0 0 0 0 0 0 0 0 0 0 0 0 0 0 0 0 0 0 0 0 0 0 0 0 0 0 0 0 0 0 0 0 0 0 0 0 0 0 0 0 0 0 0 0 0 0 0 0 0 0 0 0 0 0 0 0 0 0 0 0 0 0 0 0 0 0 0 0 0 0 0 0 0 0 0 0 0 0 0 0 0 0 0 0 0 0 0 0 0 0 0 0 0 0 0 0 0 0 0 0 0 0 0 0 0 0 0 0 0 0 0 0 0 0 0 0 0 0 0 0 0 0 0 0 0 0 0 0 0 0 0 0 0 0 0 0 0 0 0 0 0 0 0 0 0 0 0 0 0 0 0 0 0 0 0 0 0 0 0 0 0 0 0 0 0 0 0 0 0 0 0 0 0 0 0 0 0 0 0 0 0 0 0 0 0 0 0 0 0 0 0 0 0 0 0 0 0 0 0 0 0 0 

