# vtk DataFile Version 3.0
Generated by GMDS VTK Writer

ASCII
DATASET UNSTRUCTURED_GRID
POINTS 125 float
-5 -5 -5
-5 5 -5
5 5 -5
5 -5 -5
-5 -5 5
-5 5 5
5 5 5
5 -5 5
1 -5 -5
1 5 -5
1 5 5
1 -5 5
-5 4 -5
-5 4 5
1 4 5
1 4 -5
5 4 5
5 4 -5
-5 5 -1
1 5 -1
1 4 -1
-5 4 -1
1 -5 -1
-5 -5 -1
5 5 -1
5 4 -1
5 -5 -1
-5 -1 -5
1 -1 -5
1 -1 -1
-5 -1 -1
1 -1 5
-5 -1 5
5 -1 -5
5 -1 -1
5 -1 5
-0.999999999999999 -1 5
-1 -1 -1
-1 4 -1
-1 4 5
-0.999999999999999 5 -1
-0.999999999999999 5 5
-0.999999999999999 -5 5
-1 -5 -1
-0.999999999999999 5 -5
-1 4 -5
-1 -1 -5
-1 -5 -5
4 5 -5
4 4 -5
4 4 -1
4 5 -1
4 4 5
4 5 5
4 -5 -5
4 -5 -1
4 -1 -1
4 -1 -5
4 -5 5
4 -1 5
-0.999999999999999 5 1
-1 4 1
-5 4 1
-5 5 1
1 5 1
1 4 1
4 5 0.999999999999999
4 4 1
5 5 0.999999999999999
5 4 1
-1 -1 1
-5 -1 1
1 -1 1
1 -5 1
-0.999999999999999 -5 0.999999999999999
-5 -5 0.999999999999999
5 -5 0.999999999999999
5 -1 1
4 -1 1
4 -5 0.999999999999999
1 5 4
1 4 4
-1 4 4
-0.999999999999999 5 4
-5 4 4
-5 5 4
4 5 4
4 4 4
5 5 4
5 4 4
-0.999999999999999 -1 4
-5 -1 4
1 -1 4
1 -5 4
-0.999999999999999 -5 4
-5 -5 4
5 -5 4
5 -1 4
4 -1 4
4 -5 4
4 1 4
5 1 4
5 0.999999999999999 5
4 1 5
4 1 1
5 1 1
4 1 -5
4 1 -1
1 1 -1
1 1 -5
5 0.999999999999999 -5
5 1 -1
1 1 4
1 1 5
-1 1 -1
-1 1 1
1 1 1
-5 1 -1
-5 1 1
-0.999999999999999 1 4
-5 1 4
-5 0.999999999999999 5
-0.999999999999999 1 5
-1 1 -5
-5 1 -5

CELLS 240 1200
4 10 14 39 41 
4 1 12 21 18 
4 3 26 55 54 
4 88 89 87 86 
4 86 88 6 53 
4 66 68 88 86 
4 87 89 16 52 
4 67 69 89 87 
4 53 52 14 10 
4 9 15 20 19 
4 6 16 52 53 
4 0 23 30 27 
4 88 89 16 6 
4 68 69 89 88 
4 48 49 50 51 
4 48 51 19 9 
4 40 38 21 18 
4 50 51 66 67 
4 19 20 38 40 
4 8 22 29 28 
4 2 24 51 48 
4 64 65 61 60 
4 86 87 81 80 
4 51 50 20 19 
4 80 86 53 10 
4 24 25 50 51 
4 49 50 20 15 
4 17 25 50 49 
4 64 66 86 80 
4 81 87 52 14 
4 110 106 57 33 
4 19 40 60 64 
4 17 49 106 110 
4 20 38 61 65 
4 2 17 25 24 
4 65 67 87 81 
4 111 107 56 34 
4 19 20 65 64 
4 60 61 62 63 
4 86 87 52 53 
4 66 67 87 86 
4 48 49 15 9 
4 83 82 84 85 
4 83 85 5 41 
4 2 17 49 48 
4 25 50 107 111 
4 18 40 60 63 
4 110 111 34 33 
4 18 21 62 63 
4 3 26 34 33 
4 17 25 111 110 
4 21 38 61 62 
4 106 107 108 109 
4 60 63 85 83 
4 84 85 5 13 
4 38 40 60 61 
4 41 39 13 5 
4 62 63 85 84 
4 82 84 13 39 
4 61 62 84 82 
4 80 81 82 83 
4 83 80 10 41 
4 22 29 37 43 
4 43 37 30 23 
4 11 31 36 42 
4 42 36 32 4 
4 60 64 80 83 
4 9 15 45 44 
4 44 45 12 1 
4 15 20 38 45 
4 45 38 21 12 
4 9 19 40 44 
4 44 40 18 1 
4 44 45 38 40 
4 28 29 37 46 
4 46 37 30 27 
4 8 22 43 47 
4 47 43 23 0 
4 8 28 46 47 
4 47 46 27 0 
4 47 43 37 46 
4 54 55 22 8 
4 26 34 56 55 
4 55 56 29 22 
4 33 34 56 57 
4 57 56 29 28 
4 3 33 57 54 
4 54 57 28 8 
4 54 55 56 57 
4 83 82 39 41 
4 60 61 82 83 
4 82 81 14 39 
4 61 65 81 82 
4 7 35 59 58 
4 58 59 31 11 
4 80 81 14 10 
4 64 65 81 80 
4 109 106 57 28 
4 20 50 67 65 
4 15 49 106 109 
4 19 51 66 64 
4 109 108 29 28 
4 66 67 65 64 
4 24 25 69 68 
4 15 20 108 109 
4 25 50 67 69 
4 108 107 56 29 
4 24 51 66 68 
4 20 50 107 108 
4 68 69 67 66 
4 106 107 56 57 
4 30 37 70 71 
4 49 50 107 106 
4 104 105 101 100 
4 104 100 98 78 
4 29 37 70 72 
4 67 87 100 104 
4 22 29 72 73 
4 105 101 97 77 
4 37 43 74 70 
4 69 89 101 105 
4 22 43 74 73 
4 104 105 77 78 
4 73 72 70 74 
4 23 30 71 75 
4 67 69 105 104 
4 23 43 74 75 
4 100 101 102 103 
4 74 70 71 75 
4 26 34 77 76 
4 103 100 98 59 
4 34 56 78 77 
4 52 87 100 103 
4 55 56 78 79 
4 102 103 59 35 
4 26 55 79 76 
4 16 52 103 102 
4 76 77 78 79 
4 29 56 78 72 
4 102 101 97 35 
4 22 55 79 73 
4 16 89 101 102 
4 79 78 72 73 
4 100 101 97 98 
4 87 89 101 100 
4 70 71 91 90 
4 90 91 32 36 
4 70 72 92 90 
4 90 92 31 36 
4 72 73 93 92 
4 92 93 11 31 
4 70 74 94 90 
4 90 94 42 36 
4 73 74 94 93 
4 93 94 42 11 
4 93 92 90 94 
4 71 75 95 91 
4 91 95 4 32 
4 74 75 95 94 
4 94 95 4 42 
4 94 90 91 95 
4 76 77 97 96 
4 96 97 35 7 
4 77 78 98 97 
4 97 98 59 35 
4 78 79 99 98 
4 98 99 58 59 
4 76 79 99 96 
4 96 99 58 7 
4 96 97 98 99 
4 72 78 98 92 
4 92 98 59 31 
4 73 79 99 93 
4 93 99 58 11 
4 99 98 92 93 
4 110 111 107 106 
4 81 87 100 112 
4 112 100 98 92 
4 14 52 103 113 
4 113 103 59 31 
4 14 81 112 113 
4 113 112 92 31 
4 112 100 103 113 
4 20 38 114 108 
4 108 114 37 29 
4 38 61 115 114 
4 114 115 70 37 
4 61 65 116 115 
4 115 116 72 70 
4 20 65 116 108 
4 108 116 72 29 
4 108 114 115 116 
4 65 67 104 116 
4 116 104 78 72 
4 65 81 112 116 
4 116 112 92 72 
4 116 104 100 112 
4 21 38 114 117 
4 117 114 37 30 
4 61 62 118 115 
4 115 118 71 70 
4 21 62 118 117 
4 117 118 71 30 
4 117 114 115 118 
4 82 84 120 119 
4 119 120 91 90 
4 13 84 120 121 
4 121 120 91 32 
4 13 39 122 121 
4 121 122 36 32 
4 39 82 119 122 
4 122 119 90 36 
4 119 120 121 122 
4 62 84 120 118 
4 118 120 91 71 
4 61 82 119 115 
4 115 119 90 70 
4 115 118 120 119 
4 38 45 123 114 
4 114 123 46 37 
4 15 45 123 109 
4 109 123 46 28 
4 109 108 114 123 
4 12 21 117 124 
4 124 117 30 27 
4 12 45 123 124 
4 124 123 46 27 
4 123 114 117 124 
4 81 82 119 112 
4 112 119 90 92 
4 14 39 122 113 
4 113 122 36 31 
4 119 112 113 122 
4 115 116 112 119 
4 50 67 104 107 
4 107 104 78 56 
4 108 107 104 116 
4 25 69 105 111 
4 111 105 77 34 
4 111 107 104 105 

CELL_TYPES 240
9 
9 
9 
9 
9 
9 
9 
9 
9 
9 
9 
9 
9 
9 
9 
9 
9 
9 
9 
9 
9 
9 
9 
9 
9 
9 
9 
9 
9 
9 
9 
9 
9 
9 
9 
9 
9 
9 
9 
9 
9 
9 
9 
9 
9 
9 
9 
9 
9 
9 
9 
9 
9 
9 
9 
9 
9 
9 
9 
9 
9 
9 
9 
9 
9 
9 
9 
9 
9 
9 
9 
9 
9 
9 
9 
9 
9 
9 
9 
9 
9 
9 
9 
9 
9 
9 
9 
9 
9 
9 
9 
9 
9 
9 
9 
9 
9 
9 
9 
9 
9 
9 
9 
9 
9 
9 
9 
9 
9 
9 
9 
9 
9 
9 
9 
9 
9 
9 
9 
9 
9 
9 
9 
9 
9 
9 
9 
9 
9 
9 
9 
9 
9 
9 
9 
9 
9 
9 
9 
9 
9 
9 
9 
9 
9 
9 
9 
9 
9 
9 
9 
9 
9 
9 
9 
9 
9 
9 
9 
9 
9 
9 
9 
9 
9 
9 
9 
9 
9 
9 
9 
9 
9 
9 
9 
9 
9 
9 
9 
9 
9 
9 
9 
9 
9 
9 
9 
9 
9 
9 
9 
9 
9 
9 
9 
9 
9 
9 
9 
9 
9 
9 
9 
9 
9 
9 
9 
9 
9 
9 
9 
9 
9 
9 
9 
9 
9 
9 
9 
9 
9 
9 
9 
9 
9 
9 
9 
9 
9 
9 
9 
9 
9 
9 
9 
9 
9 
9 
9 
9 
POINT_DATA 125
SCALARS GMDS_ID int 1
LOOKUP_TABLE default
0 1 2 3 4 5 6 7 8 9 10 11 12 13 14 15 16 17 18 19 20 21 22 23 24 25 26 27 28 29 30 31 32 33 34 35 36 37 38 39 40 41 42 43 44 45 46 47 48 49 50 51 52 53 54 55 56 57 58 59 60 61 62 63 64 65 66 67 68 69 70 71 72 73 74 75 76 77 78 79 80 81 82 83 84 85 86 87 88 89 90 91 92 93 94 95 96 97 98 99 100 101 102 103 104 105 106 107 108 109 110 111 112 113 114 115 116 117 118 119 120 121 122 123 124 
SCALARS geom_link_dim_0 int 1
LOOKUP_TABLE default
0 0 0 0 0 0 0 0 0 0 0 0 0 0 0 0 0 0 0 0 0 0 0 0 0 0 0 0 0 0 0 0 0 0 0 0 0 0 0 0 0 0 0 0 0 0 0 0 0 0 0 0 0 0 0 0 0 0 0 0 0 0 0 0 0 0 0 0 0 0 0 0 0 0 0 0 0 0 0 0 0 0 0 0 0 0 0 0 0 0 0 0 0 0 0 0 0 0 0 0 0 0 0 0 0 0 0 0 0 0 0 0 0 0 0 0 0 0 0 0 0 0 0 0 0 
SCALARS geom_link_id_0 int 1
LOOKUP_TABLE default
0 0 0 0 0 0 0 0 0 0 0 0 0 0 0 0 0 0 0 0 0 0 0 0 0 0 0 0 0 0 0 0 0 0 0 0 0 0 0 0 0 0 0 0 0 0 0 0 0 0 0 0 0 0 0 0 0 0 0 0 0 0 0 0 0 0 0 0 0 0 0 0 0 0 0 0 0 0 0 0 0 0 0 0 0 0 0 0 0 0 0 0 0 0 0 0 0 0 0 0 0 0 0 0 0 0 0 0 0 0 0 0 0 0 0 0 0 0 0 0 0 0 0 0 0 


CELL_DATA 240
SCALARS GMDS_ID int 1
LOOKUP_TABLE default
0 1 2 4 5 6 7 8 9 10 11 13 14 15 16 17 18 20 21 22 23 24 25 26 27 28 31 32 33 34 36 37 38 39 40 41 42 43 44 46 47 48 49 50 51 52 53 54 55 56 58 59 60 61 62 63 64 65 66 67 68 69 70 71 72 73 74 75 76 77 78 79 80 81 82 83 87 88 89 90 91 92 93 94 95 96 97 98 99 105 106 107 108 109 110 111 114 115 116 117 118 119 120 121 122 123 124 125 126 127 129 130 131 133 136 137 138 140 141 142 143 144 145 146 147 148 149 150 151 152 153 154 155 156 157 158 159 160 161 162 163 164 165 167 169 173 174 180 181 183 184 185 186 187 188 189 190 191 192 193 194 195 196 197 198 199 200 201 202 203 204 205 206 207 208 215 216 217 218 219 220 221 222 223 224 225 226 227 228 229 230 231 232 233 234 235 236 237 238 239 240 241 242 243 244 245 246 247 248 249 250 251 252 253 254 255 256 257 258 259 260 261 262 263 264 265 266 267 268 269 270 271 272 273 274 275 276 277 278 279 

SCALARS geom_link_dim_0 int 1
LOOKUP_TABLE default
0 0 0 0 0 0 0 0 0 0 0 0 0 0 0 0 0 0 0 0 0 0 0 0 0 0 0 0 0 0 0 0 0 0 0 0 0 0 0 0 0 0 0 0 0 0 0 0 0 0 0 0 0 0 0 0 0 0 0 0 0 0 0 0 0 0 0 0 0 0 0 0 0 0 0 0 0 0 0 0 0 0 0 0 0 0 0 0 0 0 0 0 0 0 0 0 0 0 0 0 0 0 0 0 0 0 0 0 0 0 0 0 0 0 0 0 0 0 0 0 0 0 0 0 0 0 0 0 0 0 0 0 0 0 0 0 0 0 0 0 0 0 0 0 0 0 0 0 0 0 0 0 0 0 0 0 0 0 0 0 0 0 0 0 0 0 0 0 0 0 0 0 0 0 0 0 0 0 0 0 0 0 0 0 0 0 0 0 0 0 0 0 0 0 0 0 0 0 0 0 0 0 0 0 0 0 0 0 0 0 0 0 0 0 0 0 0 0 0 0 0 0 0 0 0 0 0 0 0 0 0 0 0 0 0 0 0 0 0 0 

SCALARS geom_link_id_0 int 1
LOOKUP_TABLE default
0 0 0 0 0 0 0 0 0 0 0 0 0 0 0 0 0 0 0 0 0 0 0 0 0 0 0 0 0 0 0 0 0 0 0 0 0 0 0 0 0 0 0 0 0 0 0 0 0 0 0 0 0 0 0 0 0 0 0 0 0 0 0 0 0 0 0 0 0 0 0 0 0 0 0 0 0 0 0 0 0 0 0 0 0 0 0 0 0 0 0 0 0 0 0 0 0 0 0 0 0 0 0 0 0 0 0 0 0 0 0 0 0 0 0 0 0 0 0 0 0 0 0 0 0 0 0 0 0 0 0 0 0 0 0 0 0 0 0 0 0 0 0 0 0 0 0 0 0 0 0 0 0 0 0 0 0 0 0 0 0 0 0 0 0 0 0 0 0 0 0 0 0 0 0 0 0 0 0 0 0 0 0 0 0 0 0 0 0 0 0 0 0 0 0 0 0 0 0 0 0 0 0 0 0 0 0 0 0 0 0 0 0 0 0 0 0 0 0 0 0 0 0 0 0 0 0 0 0 0 0 0 0 0 0 0 0 0 0 0 

