# vtk DataFile Version 3.0
Generated by GMDS VTK Writer

ASCII
DATASET UNSTRUCTURED_GRID
POINTS 125 float
-5 -5 -5
-5 5 -5
5 5 -5
5 -5 -5
-5 -5 5
-5 5 5
5 5 5
5 -5 5
4 -5 -5
4 5 -5
4 5 5
4 -5 5
-5 1 -5
-5 1 5
4 1 5
4 1 -5
5 1 5
5 1 -5
-5 -5 -1
4 -5 -1
4 1 -1
-5 1 -1
4 5 -1
-5 5 -1
5 -5 -1
5 1 -1
5 5 -1
-5 3 -1
4 3 -1
4 3 5
-5 3 5
-5 3 -5
4 3 -5
5 3 -5
5 3 -1
5 3 5
-1 -5 -5
-1 1 -5
-1 1 -1
-1 -5 -1
-1 3 5
-1 3 -1
-1 5 -1
-1 5 5
-1 1 5
-1 -5 5
-1 3 -5
-1 5 -5
5 -5 3
4 -5 3
4 1 3
5 1 3
5 3 3
4 3 3
5 5 3
4 5 3
-5 5 3
-5 3 3
-1 3 3
-1 5 3
-5 1 3
-1 1 3
-5 -5 3
-1 -5 3
4 1 1
5 1 1
5 3 1
4 3 1
5 -5 0.999999999999999
4 -5 1
5 5 0.999999999999999
4 5 1
-5 5 1
-5 3 1
-1 3 1
-1 5 1
-5 1 1
-1 1 1
-5 -5 0.999999999999999
-1 -5 0.999999999999999
-1 -1 -5
-1 -1 -1
4 -1 -1
4 -1 -5
-5 -0.999999999999999 -5
-5 -1 -1
5 -1 -5
5 -1 -1
5 -1 5
4 -1 5
4 -1 3
5 -1 3
5 -1 1
4 -1 1
-5 -1 5
-1 -1 5
-1 -1 3
-5 -1 3
-1 -1 1
-5 -1 1
1 1 -5
1 1 -1
1 3 -1
1 3 -5
1 1 5
1 3 5
1 3 3
1 1 3
1 3 1
1 5 1
1 5 -1
1 5 3
1 5 -5
1 1 1
1 5 5
1 -1 -5
1 -1 -1
0.999999999999999 -5 -5
1 -5 -1
1 -5 5
1 -5 3
1 -1 3
1 -1 5
1 -5 1
1 -1 1

CELLS 240 1200
4 23 27 41 42 
4 111 109 75 59 
4 6 35 52 54 
4 50 51 52 53 
4 15 20 28 32 
4 7 11 89 88 
4 14 29 53 50 
4 56 57 73 72 
4 86 83 82 87 
4 29 35 52 53 
4 55 71 109 111 
4 86 87 25 17 
4 67 66 70 71 
4 67 71 22 28 
4 16 35 52 51 
4 106 111 59 58 
4 3 24 87 86 
4 53 55 111 106 
4 53 55 71 67 
4 70 71 22 26 
4 108 109 110 102 
4 54 55 71 70 
4 66 70 26 34 
4 82 87 25 20 
4 102 108 74 41 
4 28 67 108 102 
4 14 16 51 50 
4 52 54 70 66 
4 19 24 87 82 
4 0 18 39 36 
4 110 102 41 42 
4 86 83 15 17 
4 22 28 102 110 
4 110 109 75 42 
4 3 8 19 24 
4 22 71 109 110 
4 15 17 25 20 
4 108 109 75 74 
4 67 71 109 108 
4 104 105 106 107 
4 104 107 61 44 
4 2 9 22 26 
4 14 50 107 104 
4 12 21 38 37 
4 107 106 58 61 
4 50 53 106 107 
4 32 28 22 9 
4 12 21 27 31 
4 31 27 23 1 
4 7 11 49 48 
4 15 17 33 32 
4 32 33 2 9 
4 17 25 34 33 
4 33 34 26 2 
4 20 25 34 28 
4 28 34 26 22 
4 32 33 34 28 
4 105 106 58 40 
4 68 69 19 24 
4 14 16 35 29 
4 29 35 6 10 
4 48 49 69 68 
4 64 65 66 67 
4 64 67 28 20 
4 5 30 40 43 
4 50 53 67 64 
4 66 67 28 34 
4 52 53 67 66 
4 21 27 41 38 
4 13 30 40 44 
4 65 66 34 25 
4 29 53 106 105 
4 104 105 40 44 
4 51 52 66 65 
4 64 65 25 20 
4 50 51 65 64 
4 27 31 46 41 
4 12 31 46 37 
4 37 38 41 46 
4 1 23 42 47 
4 1 31 46 47 
4 46 41 42 47 
4 3 8 83 86 
4 6 10 55 54 
4 84 85 81 80 
4 10 29 53 55 
4 84 80 37 12 
4 53 52 54 55 
4 5 30 57 56 
4 0 36 80 84 
4 30 40 58 57 
4 85 81 38 21 
4 40 43 59 58 
4 18 39 81 85 
4 5 43 59 56 
4 84 85 21 12 
4 56 57 58 59 
4 0 18 85 84 
4 13 30 57 60 
4 40 44 61 58 
4 13 44 61 60 
4 83 82 20 15 
4 60 57 58 61 
4 8 19 82 83 
4 14 29 105 104 
4 100 101 102 103 
4 4 45 63 62 
4 80 81 38 37 
4 100 103 46 37 
4 36 39 81 80 
4 15 32 103 100 
4 72 73 27 23 
4 57 58 74 73 
4 73 74 41 27 
4 58 59 75 74 
4 74 75 42 41 
4 56 59 75 72 
4 72 75 42 23 
4 72 73 74 75 
4 57 60 76 73 
4 73 76 21 27 
4 58 61 77 74 
4 74 77 38 41 
4 60 61 77 76 
4 76 77 38 21 
4 76 73 74 77 
4 102 103 46 41 
4 28 32 103 102 
4 101 102 41 38 
4 20 28 102 101 
4 62 63 79 78 
4 78 79 39 18 
4 100 101 38 37 
4 15 20 101 100 
4 88 89 14 16 
4 11 49 90 89 
4 89 90 50 14 
4 48 49 90 91 
4 91 90 50 51 
4 7 48 91 88 
4 88 91 51 16 
4 88 89 90 91 
4 68 69 93 92 
4 92 93 64 65 
4 19 69 93 82 
4 82 93 64 20 
4 24 68 92 87 
4 87 92 65 25 
4 92 93 82 87 
4 49 69 93 90 
4 90 93 64 50 
4 48 68 92 91 
4 91 92 65 51 
4 91 90 93 92 
4 4 45 95 94 
4 94 95 44 13 
4 45 63 96 95 
4 95 96 61 44 
4 62 63 96 97 
4 97 96 61 60 
4 4 62 97 94 
4 94 97 60 13 
4 94 95 96 97 
4 63 79 98 96 
4 96 98 77 61 
4 78 79 98 99 
4 99 98 77 76 
4 62 78 99 97 
4 97 99 76 60 
4 97 96 98 99 
4 39 79 98 81 
4 81 98 77 38 
4 18 78 99 85 
4 85 99 76 21 
4 99 98 81 85 
4 53 67 108 106 
4 106 108 74 58 
4 106 111 109 108 
4 9 22 110 112 
4 112 110 42 47 
4 9 32 103 112 
4 112 103 46 47 
4 103 102 110 112 
4 64 67 108 113 
4 113 108 74 77 
4 20 64 113 101 
4 101 113 77 38 
4 113 108 102 101 
4 50 64 113 107 
4 107 113 77 61 
4 107 106 108 113 
4 10 29 105 114 
4 114 105 40 43 
4 10 55 111 114 
4 114 111 59 43 
4 114 105 106 111 
4 82 83 115 116 
4 116 115 80 81 
4 20 82 116 101 
4 101 116 81 38 
4 15 83 115 100 
4 100 115 80 37 
4 115 116 101 100 
4 8 19 118 117 
4 117 118 39 36 
4 19 82 116 118 
4 118 116 81 39 
4 8 83 115 117 
4 117 115 80 36 
4 117 118 116 115 
4 11 49 120 119 
4 119 120 63 45 
4 49 90 121 120 
4 120 121 96 63 
4 89 90 121 122 
4 122 121 96 95 
4 11 89 122 119 
4 119 122 95 45 
4 119 120 121 122 
4 50 90 121 107 
4 107 121 96 61 
4 14 89 122 104 
4 104 122 95 44 
4 122 121 107 104 
4 19 69 123 118 
4 118 123 79 39 
4 69 93 124 123 
4 123 124 98 79 
4 82 93 124 116 
4 116 124 98 81 
4 118 123 124 116 
4 64 93 124 113 
4 113 124 98 77 
4 116 124 113 101 
4 49 69 123 120 
4 120 123 79 63 
4 90 93 124 121 
4 121 124 98 96 
4 120 123 124 121 
4 121 124 113 107 

CELL_TYPES 240
9 
9 
9 
9 
9 
9 
9 
9 
9 
9 
9 
9 
9 
9 
9 
9 
9 
9 
9 
9 
9 
9 
9 
9 
9 
9 
9 
9 
9 
9 
9 
9 
9 
9 
9 
9 
9 
9 
9 
9 
9 
9 
9 
9 
9 
9 
9 
9 
9 
9 
9 
9 
9 
9 
9 
9 
9 
9 
9 
9 
9 
9 
9 
9 
9 
9 
9 
9 
9 
9 
9 
9 
9 
9 
9 
9 
9 
9 
9 
9 
9 
9 
9 
9 
9 
9 
9 
9 
9 
9 
9 
9 
9 
9 
9 
9 
9 
9 
9 
9 
9 
9 
9 
9 
9 
9 
9 
9 
9 
9 
9 
9 
9 
9 
9 
9 
9 
9 
9 
9 
9 
9 
9 
9 
9 
9 
9 
9 
9 
9 
9 
9 
9 
9 
9 
9 
9 
9 
9 
9 
9 
9 
9 
9 
9 
9 
9 
9 
9 
9 
9 
9 
9 
9 
9 
9 
9 
9 
9 
9 
9 
9 
9 
9 
9 
9 
9 
9 
9 
9 
9 
9 
9 
9 
9 
9 
9 
9 
9 
9 
9 
9 
9 
9 
9 
9 
9 
9 
9 
9 
9 
9 
9 
9 
9 
9 
9 
9 
9 
9 
9 
9 
9 
9 
9 
9 
9 
9 
9 
9 
9 
9 
9 
9 
9 
9 
9 
9 
9 
9 
9 
9 
9 
9 
9 
9 
9 
9 
9 
9 
9 
9 
9 
9 
9 
9 
9 
9 
9 
9 
POINT_DATA 125
SCALARS GMDS_ID int 1
LOOKUP_TABLE default
0 1 2 3 4 5 6 7 8 9 10 11 12 13 14 15 16 17 18 19 20 21 22 23 24 25 26 27 28 29 30 31 32 33 34 35 36 37 38 39 40 41 42 43 44 45 46 47 48 49 50 51 52 53 54 55 56 57 58 59 60 61 62 63 64 65 66 67 68 69 70 71 72 73 74 75 76 77 78 79 80 81 82 83 84 85 86 87 88 89 90 91 92 93 94 95 96 97 98 99 100 101 102 103 104 105 106 107 108 109 110 111 112 113 114 115 116 117 118 119 120 121 122 123 124 
SCALARS geom_link_dim_0 int 1
LOOKUP_TABLE default
0 0 0 0 0 0 0 0 0 0 0 0 0 0 0 0 0 0 0 0 0 0 0 0 0 0 0 0 0 0 0 0 0 0 0 0 0 0 0 0 0 0 0 0 0 0 0 0 0 0 0 0 0 0 0 0 0 0 0 0 0 0 0 0 0 0 0 0 0 0 0 0 0 0 0 0 0 0 0 0 0 0 0 0 0 0 0 0 0 0 0 0 0 0 0 0 0 0 0 0 0 0 0 0 0 0 0 0 0 0 0 0 0 0 0 0 0 0 0 0 0 0 0 0 0 
SCALARS geom_link_id_0 int 1
LOOKUP_TABLE default
0 0 0 0 0 0 0 0 0 0 0 0 0 0 0 0 0 0 0 0 0 0 0 0 0 0 0 0 0 0 0 0 0 0 0 0 0 0 0 0 0 0 0 0 0 0 0 0 0 0 0 0 0 0 0 0 0 0 0 0 0 0 0 0 0 0 0 0 0 0 0 0 0 0 0 0 0 0 0 0 0 0 0 0 0 0 0 0 0 0 0 0 0 0 0 0 0 0 0 0 0 0 0 0 0 0 0 0 0 0 0 0 0 0 0 0 0 0 0 0 0 0 0 0 0 


CELL_DATA 240
SCALARS GMDS_ID int 1
LOOKUP_TABLE default
0 1 2 3 4 5 6 7 8 9 10 11 12 13 14 15 16 17 18 19 20 21 22 23 24 25 26 27 28 30 31 32 33 34 36 37 38 39 40 41 42 43 44 45 46 47 48 49 50 51 52 53 54 55 56 57 58 59 60 61 62 63 65 66 67 69 70 71 72 74 76 77 78 79 80 81 82 84 86 87 89 91 92 93 94 95 96 97 98 99 100 101 102 103 104 105 106 108 112 114 116 117 118 120 122 124 126 127 128 130 131 132 133 134 135 136 137 138 139 145 146 147 148 149 150 151 155 156 157 158 159 160 161 164 165 166 167 168 169 170 171 172 173 174 175 176 177 178 179 180 181 182 183 184 185 186 187 188 189 190 191 192 193 199 200 201 202 203 204 205 206 207 208 209 210 215 216 217 218 219 220 221 222 223 224 225 226 227 228 229 230 231 232 233 234 235 236 237 238 239 240 241 242 243 244 245 246 247 248 249 250 251 252 253 254 255 256 257 258 259 260 261 262 263 264 265 266 267 268 269 270 271 272 273 274 275 276 277 278 279 

SCALARS geom_link_dim_0 int 1
LOOKUP_TABLE default
0 0 0 0 0 0 0 0 0 0 0 0 0 0 0 0 0 0 0 0 0 0 0 0 0 0 0 0 0 0 0 0 0 0 0 0 0 0 0 0 0 0 0 0 0 0 0 0 0 0 0 0 0 0 0 0 0 0 0 0 0 0 0 0 0 0 0 0 0 0 0 0 0 0 0 0 0 0 0 0 0 0 0 0 0 0 0 0 0 0 0 0 0 0 0 0 0 0 0 0 0 0 0 0 0 0 0 0 0 0 0 0 0 0 0 0 0 0 0 0 0 0 0 0 0 0 0 0 0 0 0 0 0 0 0 0 0 0 0 0 0 0 0 0 0 0 0 0 0 0 0 0 0 0 0 0 0 0 0 0 0 0 0 0 0 0 0 0 0 0 0 0 0 0 0 0 0 0 0 0 0 0 0 0 0 0 0 0 0 0 0 0 0 0 0 0 0 0 0 0 0 0 0 0 0 0 0 0 0 0 0 0 0 0 0 0 0 0 0 0 0 0 0 0 0 0 0 0 0 0 0 0 0 0 0 0 0 0 0 0 

SCALARS geom_link_id_0 int 1
LOOKUP_TABLE default
0 0 0 0 0 0 0 0 0 0 0 0 0 0 0 0 0 0 0 0 0 0 0 0 0 0 0 0 0 0 0 0 0 0 0 0 0 0 0 0 0 0 0 0 0 0 0 0 0 0 0 0 0 0 0 0 0 0 0 0 0 0 0 0 0 0 0 0 0 0 0 0 0 0 0 0 0 0 0 0 0 0 0 0 0 0 0 0 0 0 0 0 0 0 0 0 0 0 0 0 0 0 0 0 0 0 0 0 0 0 0 0 0 0 0 0 0 0 0 0 0 0 0 0 0 0 0 0 0 0 0 0 0 0 0 0 0 0 0 0 0 0 0 0 0 0 0 0 0 0 0 0 0 0 0 0 0 0 0 0 0 0 0 0 0 0 0 0 0 0 0 0 0 0 0 0 0 0 0 0 0 0 0 0 0 0 0 0 0 0 0 0 0 0 0 0 0 0 0 0 0 0 0 0 0 0 0 0 0 0 0 0 0 0 0 0 0 0 0 0 0 0 0 0 0 0 0 0 0 0 0 0 0 0 0 0 0 0 0 0 

