# vtk DataFile Version 3.0
Generated by GMDS VTK Writer

ASCII
DATASET UNSTRUCTURED_GRID
POINTS 100 float
-5 -5 -5
-5 5 -5
5 5 -5
5 -5 -5
-5 -5 5
-5 5 5
5 5 5
5 -5 5
-5 -1 -5
-5 -1 5
5 -1 5
5 -1 -5
-5 -5 -1
5 -5 -1
5 -1 -1
-5 -1 -1
5 5 -1
-5 5 -1
-1 -5 -5
-1 -1 -5
-1 -1 -1
-1 -5 -1
-1 -1 5
-1 -5 5
-1 5 -5
-1 5 -1
-1 5 5
-5 -5 1
-5 -1 1
-1 -1 1
-1 -5 1
5 -1 1
5 -5 1
-5 5 1
-1 5 1
5 5 1
5 0.999999999999999 1
-1 0.999999999999999 1
-1 1 -1
5 0.999999999999999 -1
-1 0.999999999999999 -5
5 0.999999999999999 -5
5 0.999999999999999 5
-1 0.999999999999999 5
-5 1 -5
-5 1 -1
-5 0.999999999999999 1
-5 0.999999999999999 5
1 -1 1
1 -5 1
1 -5 -1
1 -1 -1
1 -1 5
1 -5 5
1 0.999999999999999 -5
1 1 -1
1 5 -1
1 5 -5
1 -1 -5
0.999999999999999 -5 -5
1 1 1
1 5 1
1 0.999999999999999 5
1 5 5
-5 3 -5
-5 3 -1
-1 3 -1
-1 3 -5
-5 3 5
-1 3 5
-1 3 1
-5 3 1
1 3 -1
1 3 -5
5 3 -1
5 3 -5
1 3 1
5 3 1
1 3 5
5 3 5
3 -1 -5
3 -1 -1
3 1 -1
3 0.999999999999999 -5
3 -5 -5
3 -5 -1
3 -5 5
3 -1 5
3 -1 1
3 -5 1
3 0.999999999999999 1
3 0.999999999999999 5
3 5 -5
3 5 -1
3 3 -1
3 3 -5
3 5 1
3 3 1
3 5 5
3 3 5

CELLS 184 920
4 11 14 39 41 
4 3 11 14 13 
4 0 12 21 18 
4 7 10 31 32 
4 25 56 72 66 
4 71 70 66 65 
4 12 15 20 21 
4 65 71 46 45 
4 17 33 71 65 
4 27 28 29 30 
4 8 15 20 19 
4 66 70 37 38 
4 27 30 21 12 
4 4 23 30 27 
4 0 8 19 18 
4 29 30 21 20 
4 22 23 30 29 
4 0 8 15 12 
4 86 89 49 53 
4 28 29 20 15 
4 38 40 54 55 
4 19 20 38 40 
4 9 22 29 28 
4 27 28 15 12 
4 52 53 49 48 
4 25 34 70 66 
4 4 9 28 27 
4 68 69 70 71 
4 18 19 20 21 
4 7 32 89 86 
4 14 31 36 39 
4 4 9 22 23 
4 68 71 46 47 
4 5 33 71 68 
4 71 70 37 46 
4 88 89 49 48 
4 22 29 48 52 
4 23 30 49 53 
4 1 17 25 24 
4 33 34 70 71 
4 22 23 53 52 
4 48 49 50 51 
4 20 29 37 38 
4 69 70 37 43 
4 26 34 70 69 
4 32 31 14 13 
4 68 69 43 47 
4 5 26 69 68 
4 64 65 66 67 
4 20 29 48 51 
4 20 21 50 51 
4 5 26 34 33 
4 33 34 25 17 
4 21 30 49 50 
4 64 67 40 44 
4 1 24 67 64 
4 29 30 49 48 
4 31 32 89 88 
4 67 66 38 40 
4 24 25 66 67 
4 65 66 38 45 
4 17 25 66 65 
4 64 65 45 44 
4 22 29 37 43 
4 87 88 48 52 
4 10 31 36 42 
4 10 31 88 87 
4 1 17 65 64 
4 8 15 45 44 
4 86 87 52 53 
4 15 20 38 45 
4 7 10 87 86 
4 8 19 40 44 
4 84 80 81 85 
4 44 45 38 40 
4 28 29 37 46 
4 84 85 50 59 
4 15 28 46 45 
4 3 13 85 84 
4 46 37 38 45 
4 9 22 43 47 
4 85 81 51 50 
4 9 28 46 47 
4 13 14 81 85 
4 47 43 37 46 
4 84 80 58 59 
4 3 11 80 84 
4 24 25 56 57 
4 80 81 82 83 
4 80 83 54 58 
4 11 41 83 80 
4 19 20 51 58 
4 20 38 55 51 
4 19 40 54 58 
4 58 51 55 54 
4 18 19 58 59 
4 18 21 50 59 
4 59 58 51 50 
4 37 38 55 60 
4 82 83 54 55 
4 39 41 83 82 
4 25 34 61 56 
4 81 82 55 51 
4 29 37 60 48 
4 51 48 60 55 
4 37 43 62 60 
4 22 43 62 52 
4 52 48 60 62 
4 26 34 61 63 
4 14 39 82 81 
4 80 81 51 58 
4 11 14 81 80 
4 66 72 55 38 
4 56 57 73 72 
4 72 73 54 55 
4 24 57 73 67 
4 67 73 54 40 
4 67 66 72 73 
4 2 16 74 75 
4 75 74 39 41 
4 34 61 76 70 
4 70 76 60 37 
4 56 61 76 72 
4 72 76 60 55 
4 66 70 76 72 
4 16 35 77 74 
4 74 77 36 39 
4 61 63 78 76 
4 76 78 62 60 
4 26 63 78 69 
4 69 78 62 43 
4 69 70 76 78 
4 6 35 77 79 
4 79 77 36 42 
4 86 87 88 89 
4 14 31 88 81 
4 81 88 48 51 
4 31 36 90 88 
4 88 90 60 48 
4 36 39 82 90 
4 90 82 55 60 
4 81 88 90 82 
4 13 32 89 85 
4 85 89 49 50 
4 89 88 81 85 
4 36 42 91 90 
4 90 91 62 60 
4 10 42 91 87 
4 87 91 62 52 
4 87 88 90 91 
4 2 16 93 92 
4 92 93 56 57 
4 16 74 94 93 
4 93 94 72 56 
4 74 75 95 94 
4 94 95 73 72 
4 2 75 95 92 
4 92 95 73 57 
4 92 93 94 95 
4 39 74 94 82 
4 82 94 72 55 
4 41 75 95 83 
4 83 95 73 54 
4 95 94 82 83 
4 16 35 96 93 
4 93 96 61 56 
4 35 77 97 96 
4 96 97 76 61 
4 74 77 97 94 
4 94 97 76 72 
4 93 96 97 94 
4 36 77 97 90 
4 90 97 76 60 
4 94 97 90 82 
4 6 35 96 98 
4 98 96 61 63 
4 77 79 99 97 
4 97 99 78 76 
4 6 79 99 98 
4 98 99 78 63 
4 98 96 97 99 
4 42 79 99 91 
4 91 99 78 62 
4 99 97 90 91 

CELL_TYPES 184
9 
9 
9 
9 
9 
9 
9 
9 
9 
9 
9 
9 
9 
9 
9 
9 
9 
9 
9 
9 
9 
9 
9 
9 
9 
9 
9 
9 
9 
9 
9 
9 
9 
9 
9 
9 
9 
9 
9 
9 
9 
9 
9 
9 
9 
9 
9 
9 
9 
9 
9 
9 
9 
9 
9 
9 
9 
9 
9 
9 
9 
9 
9 
9 
9 
9 
9 
9 
9 
9 
9 
9 
9 
9 
9 
9 
9 
9 
9 
9 
9 
9 
9 
9 
9 
9 
9 
9 
9 
9 
9 
9 
9 
9 
9 
9 
9 
9 
9 
9 
9 
9 
9 
9 
9 
9 
9 
9 
9 
9 
9 
9 
9 
9 
9 
9 
9 
9 
9 
9 
9 
9 
9 
9 
9 
9 
9 
9 
9 
9 
9 
9 
9 
9 
9 
9 
9 
9 
9 
9 
9 
9 
9 
9 
9 
9 
9 
9 
9 
9 
9 
9 
9 
9 
9 
9 
9 
9 
9 
9 
9 
9 
9 
9 
9 
9 
9 
9 
9 
9 
9 
9 
9 
9 
9 
9 
9 
9 
9 
9 
9 
9 
9 
9 
POINT_DATA 100
SCALARS GMDS_ID int 1
LOOKUP_TABLE default
0 1 2 3 4 5 6 7 8 9 10 11 12 13 14 15 16 17 18 19 20 21 22 23 24 25 26 27 28 29 30 31 32 33 34 35 36 37 38 39 40 41 42 43 44 45 46 47 48 49 50 51 52 53 54 55 56 57 58 59 60 61 62 63 64 65 66 67 68 69 70 71 72 73 74 75 76 77 78 79 80 81 82 83 84 85 86 87 88 89 90 91 92 93 94 95 96 97 98 99 
SCALARS geom_link_dim int 1
LOOKUP_TABLE default
1 1 1 1 1 1 1 1 2 2 2 2 2 2 3 3 2 2 2 3 0 3 3 2 2 3 2 2 3 0 3 3 2 2 3 2 3 0 0 3 3 2 2 3 2 3 3 2 0 3 3 0 3 2 3 0 3 2 3 2 0 3 3 2 2 3 0 3 2 3 0 3 0 3 3 2 0 3 3 2 3 0 0 3 2 3 2 3 0 3 0 3 2 3 0 3 3 0 2 3 
SCALARS geom_link_id int 1
LOOKUP_TABLE default
18 20 24 21 17 19 23 22 32 33 24 34 31 29 12 17 25 28 30 13 0 18 10 35 36 11 23 31 17 0 18 12 29 28 11 25 12 0 0 12 13 34 24 10 32 17 17 33 0 18 18 0 10 35 13 0 11 36 13 30 0 11 10 23 32 17 0 13 33 10 0 17 0 13 12 34 0 12 10 24 13 -1 -1 13 30 18 35 10 -1 18 -1 10 36 11 -1 13 11 -1 23 10 


CELL_DATA 184
SCALARS GMDS_ID int 1
LOOKUP_TABLE default
0 1 2 3 4 5 6 7 8 9 10 11 12 13 14 15 16 17 18 19 20 21 22 23 24 25 26 27 28 29 30 31 32 33 34 35 37 39 40 41 43 44 45 46 47 48 49 50 51 53 55 56 57 59 61 62 63 64 65 66 67 68 69 70 71 72 73 74 75 76 77 78 79 80 81 82 83 84 85 86 87 88 89 90 91 93 94 95 97 98 99 100 102 104 106 107 109 111 112 114 115 116 118 119 121 122 124 126 127 129 130 131 132 133 134 135 136 137 140 141 145 146 147 148 149 152 153 155 156 157 158 159 160 161 165 166 167 168 169 170 171 172 173 174 175 176 177 178 179 180 181 182 183 184 185 186 187 188 189 190 191 192 193 194 195 196 197 198 199 200 201 202 203 204 205 206 207 208 209 210 211 212 213 214 

SCALARS geom_link_dim int 1
LOOKUP_TABLE default
0 0 0 0 0 0 0 0 0 0 0 0 0 0 0 0 0 0 0 0 0 0 0 0 0 0 0 0 0 0 0 0 0 0 0 0 0 0 0 0 0 0 0 0 0 0 0 0 0 0 0 0 0 0 0 0 0 0 0 0 0 0 0 0 0 0 0 0 0 0 0 0 0 0 0 0 0 0 0 0 0 0 0 0 0 0 0 0 0 0 0 0 0 0 0 0 0 0 0 0 0 0 0 0 0 0 0 0 0 0 0 0 0 0 0 0 0 0 0 0 0 0 0 0 0 0 0 0 0 0 0 0 0 0 0 0 0 0 0 0 0 0 0 0 0 0 0 0 0 0 0 0 0 0 0 0 0 0 0 0 0 0 0 0 0 0 0 0 0 0 0 0 0 0 0 0 0 0 0 0 0 0 0 0 

SCALARS geom_link_id int 1
LOOKUP_TABLE default
0 0 0 0 0 0 0 0 0 0 0 0 0 0 0 0 0 0 -1 0 0 0 0 0 0 0 0 0 0 -1 0 0 0 0 0 -1 0 0 0 0 0 0 0 0 0 0 0 0 0 0 0 0 0 0 0 0 0 -1 0 0 0 0 0 0 -1 0 -1 0 0 -1 0 -1 0 -1 0 0 -1 0 -1 0 0 -1 0 -1 0 -1 -1 0 -1 -1 -1 0 0 0 0 0 0 0 0 -1 -1 0 -1 0 0 0 0 0 0 -1 -1 -1 0 0 0 0 0 0 0 0 0 0 0 0 0 0 0 0 0 0 0 0 0 0 -1 -1 -1 -1 -1 -1 -1 -1 -1 -1 -1 -1 -1 -1 -1 -1 -1 -1 -1 -1 -1 -1 -1 -1 -1 -1 -1 -1 -1 -1 -1 -1 -1 -1 -1 -1 -1 -1 -1 -1 -1 -1 -1 -1 -1 -1 -1 -1 -1 -1 

