# vtk DataFile Version 3.0
Generated by GMDS VTK Writer

ASCII
DATASET UNSTRUCTURED_GRID
POINTS 125 float
-5 -5 -5
-5 5 -5
5 5 -5
5 -5 -5
-5 -5 5
-5 5 5
5 5 5
5 -5 5
-5 -1 -5
-5 -1 5
5 -1 5
5 -1 -5
-5 -5 -1
5 -5 -1
5 -1 -1
-5 -1 -1
5 5 -1
-5 5 -1
-1 -5 -5
-1 -1 -5
-1 -1 -1
-1 -5 -1
-1 -1 5
-1 -5 5
-1 5 -5
-1 5 -1
-1 5 5
-1 0.999999999999999 -5
-1 1 -1
5 0.999999999999999 -1
5 0.999999999999999 -5
-5 1 -5
-5 1 -1
-5 0.999999999999999 5
-1 0.999999999999999 5
5 0.999999999999999 5
-5 -5 1
-5 -1 1
-1 -1 1
-1 -5 1
5 -1 1
5 -5 1
-1 1 1
-5 1 1
-1 5 1
-5 5 1
5 0.999999999999999 1
5 5 1
1 0.999999999999999 -5
1 1 -1
1 5 -1
1 5 -5
1 -1 -5
1 -1 -1
0.999999999999999 -5 -5
1 -5 -1
1 -1 1
1 -5 1
1 -1 5
1 -5 5
1 0.999999999999999 5
1 1 1
1 5 5
1 5 1
-5 3 -5
-5 3 -1
-1 3 -1
-1 3 -5
1 3 -5
1 3 -1
5 3 -1
5 3 -5
-5 3 5
-1 3 5
-1 3 1
-5 3 1
1 3 1
1 3 5
5 3 1
5 3 5
-5 0.999999999999999 3
-1 0.999999999999999 3
-1 3 3
-5 3 3
-5 -5 3
-5 -1 3
-1 -1 3
-1 -5 3
1 -5 3
1 -1 3
5 -5 3
5 -1 3
1 0.999999999999999 3
5 0.999999999999999 3
-1 5 3
-5 5 3
1 3 3
1 5 3
5 3 3
5 5 3
3 -1 -5
3 -1 -1
3 1 -1
3 0.999999999999999 -5
3 3 -5
3 3 -1
3 5 -1
3 5 -5
3 -5 -5
3 -5 -1
3 -1 1
3 -5 1
3 0.999999999999999 1
3 3 1
3 5 1
3 -1 5
3 -5 5
3 -5 3
3 -1 3
3 0.999999999999999 5
3 0.999999999999999 3
3 3 5
3 3 3
3 5 5
3 5 3

CELLS 240 1200
4 18 19 52 54 
4 3 11 14 13 
4 0 12 21 18 
4 15 20 28 32 
4 33 34 73 72 
4 23 59 88 87 
4 12 15 20 21 
4 67 66 69 68 
4 8 15 32 31 
4 67 68 51 24 
4 8 15 20 19 
4 27 48 68 67 
4 66 69 50 25 
4 28 49 69 66 
4 0 8 19 18 
4 85 86 81 80 
4 11 14 29 30 
4 0 8 15 12 
4 52 53 49 48 
4 56 57 111 110 
4 85 80 43 37 
4 70 71 2 16 
4 36 37 38 39 
4 19 20 28 27 
4 29 30 71 70 
4 18 19 20 21 
4 19 27 48 52 
4 4 9 22 23 
4 20 28 49 53 
4 36 39 21 12 
4 108 100 101 109 
4 38 39 21 20 
4 108 109 13 3 
4 1 17 25 24 
4 37 38 20 15 
4 54 55 109 108 
4 36 37 15 12 
4 19 20 53 52 
4 9 33 80 85 
4 101 109 13 14 
4 86 81 42 38 
4 8 19 27 31 
4 22 34 81 86 
4 31 32 28 27 
4 84 85 86 87 
4 84 87 39 36 
4 24 25 50 51 
4 9 22 34 33 
4 4 23 87 84 
4 86 87 39 38 
4 22 23 87 86 
4 68 69 50 51 
4 48 49 69 68 
4 27 28 49 48 
4 41 40 14 13 
4 64 65 66 67 
4 67 64 1 24 
4 27 31 64 67 
4 53 55 109 101 
4 38 42 28 20 
4 100 108 3 11 
4 43 42 28 32 
4 52 54 108 100 
4 37 43 32 15 
4 37 38 42 43 
4 85 86 38 37 
4 9 22 86 85 
4 103 102 105 104 
4 45 44 25 17 
4 84 85 37 36 
4 4 9 85 84 
4 80 81 82 83 
4 67 66 25 24 
4 27 28 66 67 
4 103 104 71 30 
4 40 46 29 14 
4 66 65 17 25 
4 28 32 65 66 
4 64 65 17 1 
4 80 83 75 43 
4 33 72 83 80 
4 31 32 65 64 
4 20 21 55 53 
4 18 21 55 54 
4 54 52 53 55 
4 38 39 57 56 
4 21 39 57 55 
4 20 38 56 53 
4 56 57 55 53 
4 22 23 59 58 
4 48 68 104 103 
4 102 105 70 29 
4 49 69 105 102 
4 104 105 106 107 
4 107 104 71 2 
4 22 34 60 58 
4 51 68 104 107 
4 106 107 2 16 
4 38 42 61 56 
4 50 51 107 106 
4 28 42 61 49 
4 56 61 49 53 
4 83 82 74 75 
4 72 73 82 83 
4 81 82 74 42 
4 34 73 82 81 
4 106 105 70 16 
4 50 69 105 106 
4 80 81 42 43 
4 25 44 63 50 
4 33 34 81 80 
4 72 73 26 5 
4 104 105 70 71 
4 68 69 105 104 
4 42 43 75 74 
4 74 75 45 44 
4 100 101 102 103 
4 103 100 11 30 
4 48 52 100 103 
4 28 42 74 66 
4 66 74 44 25 
4 32 43 75 65 
4 65 75 45 17 
4 75 74 66 65 
4 42 61 76 74 
4 74 76 63 44 
4 103 102 29 30 
4 48 49 102 103 
4 34 60 77 73 
4 73 77 62 26 
4 102 101 14 29 
4 49 53 101 102 
4 100 101 14 11 
4 52 53 101 100 
4 49 61 76 69 
4 69 76 63 50 
4 66 74 76 69 
4 29 46 78 70 
4 70 78 47 16 
4 87 88 57 39 
4 58 59 88 89 
4 89 88 57 56 
4 22 58 89 86 
4 86 89 56 38 
4 86 87 88 89 
4 7 10 91 90 
4 90 91 40 41 
4 34 60 92 81 
4 81 92 61 42 
4 58 60 92 89 
4 89 92 61 56 
4 86 81 92 89 
4 10 35 93 91 
4 91 93 46 40 
4 26 73 82 94 
4 94 82 74 44 
4 5 26 94 95 
4 95 94 44 45 
4 5 72 83 95 
4 95 83 75 45 
4 83 82 94 95 
4 60 77 96 92 
4 92 96 76 61 
4 73 77 96 82 
4 82 96 76 74 
4 81 92 96 82 
4 62 77 96 97 
4 97 96 76 63 
4 26 62 97 94 
4 94 97 63 44 
4 82 96 97 94 
4 35 79 98 93 
4 93 98 78 46 
4 6 79 98 99 
4 99 98 78 47 
4 110 111 41 40 
4 55 57 111 109 
4 109 111 41 13 
4 53 56 110 101 
4 101 110 40 14 
4 110 111 109 101 
4 56 61 112 110 
4 110 112 46 40 
4 49 61 112 102 
4 102 112 46 29 
4 110 112 102 101 
4 61 76 113 112 
4 112 113 78 46 
4 69 76 113 105 
4 105 113 78 70 
4 102 112 113 105 
4 63 76 113 114 
4 114 113 78 47 
4 50 63 114 106 
4 106 114 47 16 
4 105 113 114 106 
4 58 59 116 115 
4 115 116 7 10 
4 59 88 117 116 
4 116 117 90 7 
4 88 89 118 117 
4 117 118 91 90 
4 58 89 118 115 
4 115 118 91 10 
4 115 116 117 118 
4 57 88 117 111 
4 111 117 90 41 
4 56 89 118 110 
4 110 118 91 40 
4 118 117 111 110 
4 58 60 119 115 
4 115 119 35 10 
4 60 92 120 119 
4 119 120 93 35 
4 89 92 120 118 
4 118 120 93 91 
4 115 119 120 118 
4 61 92 120 112 
4 112 120 93 46 
4 118 120 112 110 
4 60 77 121 119 
4 119 121 79 35 
4 77 96 122 121 
4 121 122 98 79 
4 92 96 122 120 
4 120 122 98 93 
4 119 121 122 120 
4 76 96 122 113 
4 113 122 98 78 
4 120 122 113 112 
4 62 77 121 123 
4 123 121 79 6 
4 96 97 124 122 
4 122 124 99 98 
4 62 97 124 123 
4 123 124 99 6 
4 123 121 122 124 
4 63 97 124 114 
4 114 124 99 47 
4 124 122 113 114 

CELL_TYPES 240
9 
9 
9 
9 
9 
9 
9 
9 
9 
9 
9 
9 
9 
9 
9 
9 
9 
9 
9 
9 
9 
9 
9 
9 
9 
9 
9 
9 
9 
9 
9 
9 
9 
9 
9 
9 
9 
9 
9 
9 
9 
9 
9 
9 
9 
9 
9 
9 
9 
9 
9 
9 
9 
9 
9 
9 
9 
9 
9 
9 
9 
9 
9 
9 
9 
9 
9 
9 
9 
9 
9 
9 
9 
9 
9 
9 
9 
9 
9 
9 
9 
9 
9 
9 
9 
9 
9 
9 
9 
9 
9 
9 
9 
9 
9 
9 
9 
9 
9 
9 
9 
9 
9 
9 
9 
9 
9 
9 
9 
9 
9 
9 
9 
9 
9 
9 
9 
9 
9 
9 
9 
9 
9 
9 
9 
9 
9 
9 
9 
9 
9 
9 
9 
9 
9 
9 
9 
9 
9 
9 
9 
9 
9 
9 
9 
9 
9 
9 
9 
9 
9 
9 
9 
9 
9 
9 
9 
9 
9 
9 
9 
9 
9 
9 
9 
9 
9 
9 
9 
9 
9 
9 
9 
9 
9 
9 
9 
9 
9 
9 
9 
9 
9 
9 
9 
9 
9 
9 
9 
9 
9 
9 
9 
9 
9 
9 
9 
9 
9 
9 
9 
9 
9 
9 
9 
9 
9 
9 
9 
9 
9 
9 
9 
9 
9 
9 
9 
9 
9 
9 
9 
9 
9 
9 
9 
9 
9 
9 
9 
9 
9 
9 
9 
9 
9 
9 
9 
9 
9 
9 
POINT_DATA 125
SCALARS GMDS_ID int 1
LOOKUP_TABLE default
0 1 2 3 4 5 6 7 8 9 10 11 12 13 14 15 16 17 18 19 20 21 22 23 24 25 26 27 28 29 30 31 32 33 34 35 36 37 38 39 40 41 42 43 44 45 46 47 48 49 50 51 52 53 54 55 56 57 58 59 60 61 62 63 64 65 66 67 68 69 70 71 72 73 74 75 76 77 78 79 80 81 82 83 84 85 86 87 88 89 90 91 92 93 94 95 96 97 98 99 100 101 102 103 104 105 106 107 108 109 110 111 112 113 114 115 116 117 118 119 120 121 122 123 124 
SCALARS geom_link_dim_0 int 1
LOOKUP_TABLE default
0 0 0 0 0 0 0 0 0 0 0 0 0 0 0 0 0 0 0 0 0 0 0 0 0 0 0 0 0 0 0 0 0 0 0 0 0 0 0 0 0 0 0 0 0 0 0 0 0 0 0 0 0 0 0 0 0 0 0 0 0 0 0 0 0 0 0 0 0 0 0 0 0 0 0 0 0 0 0 0 0 0 0 0 0 0 0 0 0 0 0 0 0 0 0 0 0 0 0 0 0 0 0 0 0 0 0 0 0 0 0 0 0 0 0 0 0 0 0 0 0 0 0 0 0 
SCALARS geom_link_id_0 int 1
LOOKUP_TABLE default
0 0 0 0 0 0 0 0 0 0 0 0 0 0 0 0 0 0 0 0 0 0 0 0 0 0 0 0 0 0 0 0 0 0 0 0 0 0 0 0 0 0 0 0 0 0 0 0 0 0 0 0 0 0 0 0 0 0 0 0 0 0 0 0 0 0 0 0 0 0 0 0 0 0 0 0 0 0 0 0 0 0 0 0 0 0 0 0 0 0 0 0 0 0 0 0 0 0 0 0 0 0 0 0 0 0 0 0 0 0 0 0 0 0 0 0 0 0 0 0 0 0 0 0 0 


CELL_DATA 240
SCALARS GMDS_ID int 1
LOOKUP_TABLE default
0 1 2 3 4 5 6 7 8 9 10 11 12 13 14 15 16 17 18 20 23 24 25 26 27 28 30 31 34 36 37 38 39 40 42 43 44 45 46 47 48 49 50 51 52 53 55 56 57 58 59 61 62 63 64 65 66 67 68 69 70 71 72 73 74 75 76 77 78 79 80 81 82 83 84 85 86 87 88 89 90 91 93 95 97 98 100 102 104 105 107 108 109 110 111 112 114 115 116 118 119 121 122 123 124 125 126 127 128 129 131 132 133 134 135 136 137 138 139 140 141 142 143 144 145 146 147 148 149 150 151 154 155 158 159 160 161 162 163 165 166 167 168 169 170 173 174 178 179 180 181 182 185 186 188 189 190 191 192 193 194 195 196 197 198 199 200 201 202 203 204 207 208 212 213 215 216 217 218 219 220 221 222 223 224 225 226 227 228 229 230 231 232 233 234 235 236 237 238 239 240 241 242 243 244 245 246 247 248 249 250 251 252 253 254 255 256 257 258 259 260 261 262 263 264 265 266 267 268 269 270 271 272 273 274 275 276 277 278 279 

SCALARS geom_link_dim_0 int 1
LOOKUP_TABLE default
0 0 0 0 0 0 0 0 0 0 0 0 0 0 0 0 0 0 0 0 0 0 0 0 0 0 0 0 0 0 0 0 0 0 0 0 0 0 0 0 0 0 0 0 0 0 0 0 0 0 0 0 0 0 0 0 0 0 0 0 0 0 0 0 0 0 0 0 0 0 0 0 0 0 0 0 0 0 0 0 0 0 0 0 0 0 0 0 0 0 0 0 0 0 0 0 0 0 0 0 0 0 0 0 0 0 0 0 0 0 0 0 0 0 0 0 0 0 0 0 0 0 0 0 0 0 0 0 0 0 0 0 0 0 0 0 0 0 0 0 0 0 0 0 0 0 0 0 0 0 0 0 0 0 0 0 0 0 0 0 0 0 0 0 0 0 0 0 0 0 0 0 0 0 0 0 0 0 0 0 0 0 0 0 0 0 0 0 0 0 0 0 0 0 0 0 0 0 0 0 0 0 0 0 0 0 0 0 0 0 0 0 0 0 0 0 0 0 0 0 0 0 0 0 0 0 0 0 0 0 0 0 0 0 0 0 0 0 0 0 

SCALARS geom_link_id_0 int 1
LOOKUP_TABLE default
0 0 0 0 0 0 0 0 0 0 0 0 0 0 0 0 0 0 0 0 0 0 0 0 0 0 0 0 0 0 0 0 0 0 0 0 0 0 0 0 0 0 0 0 0 0 0 0 0 0 0 0 0 0 0 0 0 0 0 0 0 0 0 0 0 0 0 0 0 0 0 0 0 0 0 0 0 0 0 0 0 0 0 0 0 0 0 0 0 0 0 0 0 0 0 0 0 0 0 0 0 0 0 0 0 0 0 0 0 0 0 0 0 0 0 0 0 0 0 0 0 0 0 0 0 0 0 0 0 0 0 0 0 0 0 0 0 0 0 0 0 0 0 0 0 0 0 0 0 0 0 0 0 0 0 0 0 0 0 0 0 0 0 0 0 0 0 0 0 0 0 0 0 0 0 0 0 0 0 0 0 0 0 0 0 0 0 0 0 0 0 0 0 0 0 0 0 0 0 0 0 0 0 0 0 0 0 0 0 0 0 0 0 0 0 0 0 0 0 0 0 0 0 0 0 0 0 0 0 0 0 0 0 0 0 0 0 0 0 0 

