# vtk DataFile Version 3.0
Generated by GMDS VTK Writer

ASCII
DATASET UNSTRUCTURED_GRID
POINTS 36 float
-5 -5 -5
-5 5 -5
5 5 -5
5 -5 -5
-5 -5 5
-5 5 5
5 5 5
5 -5 5
4 -5 -5
4 5 -5
4 5 5
4 -5 5
-5 1 -5
-5 1 5
4 1 5
4 1 -5
5 1 5
5 1 -5
-5 -5 -1
4 -5 -1
4 1 -1
-5 1 -1
4 5 -1
-5 5 -1
5 -5 -1
5 1 -1
5 5 -1
-5 3 -1
4 3 -1
4 3 5
-5 3 5
-5 3 -5
4 3 -5
5 3 -5
5 3 -1
5 3 5

CELLS 52 260
4 0 12 21 18 
4 4 11 14 13 
4 21 20 14 13 
4 15 20 28 32 
4 31 32 9 1 
4 12 15 20 21 
4 19 20 14 11 
4 12 15 32 31 
4 27 28 29 30 
4 8 15 20 19 
4 18 19 11 4 
4 30 27 23 5 
4 13 21 27 30 
4 0 8 19 18 
4 30 29 10 5 
4 13 14 29 30 
4 0 8 15 12 
4 29 28 22 10 
4 7 11 14 16 
4 14 20 28 29 
4 28 27 23 22 
4 3 8 15 17 
4 20 21 27 28 
4 18 21 13 4 
4 18 19 20 21 
4 1 9 22 23 
4 23 22 10 5 
4 3 8 19 24 
4 24 19 11 7 
4 15 17 25 20 
4 20 25 16 14 
4 3 17 25 24 
4 24 25 16 7 
4 24 19 20 25 
4 2 9 22 26 
4 26 22 10 6 
4 32 28 22 9 
4 12 21 27 31 
4 31 27 23 1 
4 31 32 28 27 
4 15 17 33 32 
4 32 33 2 9 
4 17 25 34 33 
4 33 34 26 2 
4 20 25 34 28 
4 28 34 26 22 
4 32 33 34 28 
4 16 25 34 35 
4 35 34 26 6 
4 14 16 35 29 
4 29 35 6 10 
4 28 34 35 29 

CELL_TYPES 52
9 
9 
9 
9 
9 
9 
9 
9 
9 
9 
9 
9 
9 
9 
9 
9 
9 
9 
9 
9 
9 
9 
9 
9 
9 
9 
9 
9 
9 
9 
9 
9 
9 
9 
9 
9 
9 
9 
9 
9 
9 
9 
9 
9 
9 
9 
9 
9 
9 
9 
9 
9 
POINT_DATA 36
SCALARS GMDS_ID int 1
LOOKUP_TABLE default
0 1 2 3 4 5 6 7 8 9 10 11 12 13 14 15 16 17 18 19 20 21 22 23 24 25 26 27 28 29 30 31 32 33 34 35 
SCALARS geom_link_dim_0 int 1
LOOKUP_TABLE default
0 0 0 0 0 0 0 0 0 0 0 0 0 0 0 0 0 0 0 0 0 0 0 0 0 0 0 0 0 0 0 0 0 0 0 0 
SCALARS geom_link_id_0 int 1
LOOKUP_TABLE default
0 0 0 0 0 0 0 0 0 0 0 0 0 0 0 0 0 0 0 0 0 0 0 0 0 0 0 0 0 0 0 0 0 0 0 0 


CELL_DATA 52
SCALARS GMDS_ID int 1
LOOKUP_TABLE default
1 2 3 4 5 6 7 8 9 10 11 12 13 14 15 16 17 19 20 22 23 24 26 27 28 31 32 36 37 38 39 40 41 42 43 44 48 49 50 51 52 53 54 55 56 57 58 59 60 61 62 63 

SCALARS geom_link_dim_0 int 1
LOOKUP_TABLE default
0 0 0 0 0 0 0 0 0 0 0 0 0 0 0 0 0 0 0 0 0 0 0 0 0 0 0 0 0 0 0 0 0 0 0 0 0 0 0 0 0 0 0 0 0 0 0 0 0 0 0 0 

SCALARS geom_link_id_0 int 1
LOOKUP_TABLE default
0 0 0 0 0 0 0 0 0 0 0 0 0 0 0 0 0 0 0 0 0 0 0 0 0 0 0 0 0 0 0 0 0 0 0 0 0 0 0 0 0 0 0 0 0 0 0 0 0 0 0 0 

