# vtk DataFile Version 3.0
Generated by GMDS VTK Writer

ASCII
DATASET UNSTRUCTURED_GRID
POINTS 64 float
-5 -5 -5
-5 5 -5
5 5 -5
5 -5 -5
-5 -5 5
-5 5 5
5 5 5
5 -5 5
4 -5 -5
4 5 -5
4 5 5
4 -5 5
-5 1 -5
-5 1 5
4 1 5
4 1 -5
5 1 5
5 1 -5
-5 -5 -1
4 -5 -1
4 1 -1
-5 1 -1
4 5 -1
-5 5 -1
5 -5 -1
5 1 -1
5 5 -1
-5 3 -1
4 3 -1
4 3 5
-5 3 5
-5 3 -5
4 3 -5
5 3 -5
5 3 -1
5 3 5
-1 -5 -5
-1 1 -5
-1 1 -1
-1 -5 -1
-1 3 5
-1 3 -1
-1 5 -1
-1 5 5
-1 1 5
-1 -5 5
-1 3 -5
-1 5 -5
5 -5 3
4 -5 3
4 1 3
5 1 3
5 3 3
4 3 3
5 5 3
4 5 3
-5 5 3
-5 3 3
-1 3 3
-1 5 3
-5 1 3
-1 1 3
-5 -5 3
-1 -5 3

CELLS 108 540
4 23 27 41 42 
4 0 12 21 18 
4 6 35 52 54 
4 50 51 52 53 
4 15 20 28 32 
4 50 53 28 20 
4 14 29 53 50 
4 53 52 34 28 
4 29 35 52 53 
4 8 15 20 19 
4 51 52 34 25 
4 16 35 52 51 
4 48 49 50 51 
4 48 51 25 24 
4 7 16 51 48 
4 7 11 14 16 
4 50 51 25 20 
4 3 8 15 17 
4 36 37 38 39 
4 14 16 51 50 
4 49 50 20 19 
4 36 39 19 8 
4 0 18 39 36 
4 11 14 50 49 
4 48 49 19 24 
4 39 38 20 19 
4 18 21 38 39 
4 37 38 20 15 
4 3 8 19 24 
4 15 17 25 20 
4 3 17 25 24 
4 24 19 20 25 
4 2 9 22 26 
4 12 21 38 37 
4 36 37 15 8 
4 0 12 37 36 
4 32 28 22 9 
4 12 21 27 31 
4 31 27 23 1 
4 7 11 49 48 
4 15 17 33 32 
4 32 33 2 9 
4 17 25 34 33 
4 33 34 26 2 
4 20 25 34 28 
4 28 34 26 22 
4 32 33 34 28 
4 14 16 35 29 
4 29 35 6 10 
4 42 41 28 22 
4 5 30 40 43 
4 43 40 29 10 
4 21 27 41 38 
4 38 41 28 20 
4 13 30 40 44 
4 44 40 29 14 
4 4 13 44 45 
4 45 44 14 11 
4 27 31 46 41 
4 41 46 32 28 
4 12 31 46 37 
4 37 46 32 15 
4 37 38 41 46 
4 1 23 42 47 
4 47 42 22 9 
4 1 31 46 47 
4 47 46 32 9 
4 46 41 42 47 
4 54 52 34 26 
4 6 10 55 54 
4 54 55 22 26 
4 10 29 53 55 
4 55 53 28 22 
4 53 52 54 55 
4 5 30 57 56 
4 56 57 27 23 
4 30 40 58 57 
4 57 58 41 27 
4 40 43 59 58 
4 58 59 42 41 
4 5 43 59 56 
4 56 59 42 23 
4 56 57 58 59 
4 29 40 58 53 
4 53 58 41 28 
4 10 43 59 55 
4 55 59 42 22 
4 59 58 53 55 
4 13 30 57 60 
4 60 57 27 21 
4 40 44 61 58 
4 58 61 38 41 
4 13 44 61 60 
4 60 61 38 21 
4 60 57 58 61 
4 14 44 61 50 
4 50 61 38 20 
4 61 58 53 50 
4 4 13 60 62 
4 62 60 21 18 
4 44 45 63 61 
4 61 63 39 38 
4 4 45 63 62 
4 62 63 39 18 
4 62 60 61 63 
4 11 45 63 49 
4 49 63 39 19 
4 63 61 50 49 

CELL_TYPES 108
9 
9 
9 
9 
9 
9 
9 
9 
9 
9 
9 
9 
9 
9 
9 
9 
9 
9 
9 
9 
9 
9 
9 
9 
9 
9 
9 
9 
9 
9 
9 
9 
9 
9 
9 
9 
9 
9 
9 
9 
9 
9 
9 
9 
9 
9 
9 
9 
9 
9 
9 
9 
9 
9 
9 
9 
9 
9 
9 
9 
9 
9 
9 
9 
9 
9 
9 
9 
9 
9 
9 
9 
9 
9 
9 
9 
9 
9 
9 
9 
9 
9 
9 
9 
9 
9 
9 
9 
9 
9 
9 
9 
9 
9 
9 
9 
9 
9 
9 
9 
9 
9 
9 
9 
9 
9 
9 
9 
POINT_DATA 64
SCALARS GMDS_ID int 1
LOOKUP_TABLE default
0 1 2 3 4 5 6 7 8 9 10 11 12 13 14 15 16 17 18 19 20 21 22 23 24 25 26 27 28 29 30 31 32 33 34 35 36 37 38 39 40 41 42 43 44 45 46 47 48 49 50 51 52 53 54 55 56 57 58 59 60 61 62 63 
SCALARS geom_link_dim_0 int 1
LOOKUP_TABLE default
0 0 0 0 0 0 0 0 0 0 0 0 0 0 0 0 0 0 0 0 0 0 0 0 0 0 0 0 0 0 0 0 0 0 0 0 0 0 0 0 0 0 0 0 0 0 0 0 0 0 0 0 0 0 0 0 0 0 0 0 0 0 0 0 
SCALARS geom_link_id_0 int 1
LOOKUP_TABLE default
0 0 0 0 0 0 0 0 0 0 0 0 0 0 0 0 0 0 0 0 0 0 0 0 0 0 0 0 0 0 0 0 0 0 0 0 0 0 0 0 0 0 0 0 0 0 0 0 0 0 0 0 0 0 0 0 0 0 0 0 0 0 0 0 


CELL_DATA 108
SCALARS GMDS_ID int 1
LOOKUP_TABLE default
0 1 2 3 4 5 6 8 9 10 11 14 15 16 17 20 23 24 25 26 28 29 30 31 32 33 34 35 36 38 40 42 43 45 46 47 48 49 50 51 52 53 54 55 56 57 58 61 62 64 67 68 72 73 74 75 77 78 82 83 84 85 86 87 88 89 90 91 92 93 94 95 96 97 98 99 100 101 102 103 104 105 106 107 108 109 110 111 112 113 114 115 116 117 118 119 120 121 122 123 124 125 126 127 128 129 130 131 

SCALARS geom_link_dim_0 int 1
LOOKUP_TABLE default
0 0 0 0 0 0 0 0 0 0 0 0 0 0 0 0 0 0 0 0 0 0 0 0 0 0 0 0 0 0 0 0 0 0 0 0 0 0 0 0 0 0 0 0 0 0 0 0 0 0 0 0 0 0 0 0 0 0 0 0 0 0 0 0 0 0 0 0 0 0 0 0 0 0 0 0 0 0 0 0 0 0 0 0 0 0 0 0 0 0 0 0 0 0 0 0 0 0 0 0 0 0 0 0 0 0 0 0 

SCALARS geom_link_id_0 int 1
LOOKUP_TABLE default
0 0 0 0 0 0 0 0 0 0 0 0 0 0 0 0 0 0 0 0 0 0 0 0 0 0 0 0 0 0 0 0 0 0 0 0 0 0 0 0 0 0 0 0 0 0 0 0 0 0 0 0 0 0 0 0 0 0 0 0 0 0 0 0 0 0 0 0 0 0 0 0 0 0 0 0 0 0 0 0 0 0 0 0 0 0 0 0 0 0 0 0 0 0 0 0 0 0 0 0 0 0 0 0 0 0 0 0 

