# vtk DataFile Version 3.0
Generated by GMDS VTK Writer

ASCII
DATASET UNSTRUCTURED_GRID
POINTS 80 float
-5 -5 -5
-5 5 -5
5 5 -5
5 -5 -5
-5 -5 5
-5 5 5
5 5 5
5 -5 5
1 -5 -5
1 5 -5
1 5 5
1 -5 5
-5 4 -5
-5 4 5
1 4 5
1 4 -5
5 4 5
5 4 -5
-5 5 -1
1 5 -1
1 4 -1
-5 4 -1
1 -5 -1
-5 -5 -1
5 5 -1
5 4 -1
5 -5 -1
-5 -1 -5
1 -1 -5
1 -1 -1
-5 -1 -1
1 -1 5
-5 -1 5
5 -1 -5
5 -1 -1
5 -1 5
-0.999999999999999 -1 5
-1 -1 -1
-1 4 -1
-1 4 5
-0.999999999999999 5 -1
-0.999999999999999 5 5
-0.999999999999999 -5 5
-1 -5 -1
-0.999999999999999 5 -5
-1 4 -5
-1 -1 -5
-1 -5 -5
4 5 -5
4 4 -5
4 4 -1
4 5 -1
4 4 5
4 5 5
4 -5 -5
4 -5 -1
4 -1 -1
4 -1 -5
4 -5 5
4 -1 5
-0.999999999999999 5 1
-1 4 1
-5 4 1
-5 5 1
1 5 1
1 4 1
4 5 0.999999999999999
4 4 1
5 5 0.999999999999999
5 4 1
-1 -1 1
-5 -1 1
1 -1 1
1 -5 1
-0.999999999999999 -5 0.999999999999999
-5 -5 0.999999999999999
5 -5 0.999999999999999
5 -1 1
4 -1 1
4 -5 0.999999999999999

CELLS 141 705
4 10 14 39 41 
4 1 12 21 18 
4 3 26 55 54 
4 53 52 14 10 
4 9 15 20 19 
4 6 16 52 53 
4 27 30 21 12 
4 0 23 30 27 
4 48 49 50 51 
4 48 51 19 9 
4 40 38 21 18 
4 28 29 20 15 
4 50 51 66 67 
4 19 20 38 40 
4 8 22 29 28 
4 2 24 51 48 
4 64 65 61 60 
4 51 50 20 19 
4 24 25 50 51 
4 39 36 32 13 
4 14 31 36 39 
4 49 50 20 15 
4 17 25 50 49 
4 38 37 30 21 
4 64 60 41 10 
4 19 40 60 64 
4 65 61 39 14 
4 20 38 61 65 
4 2 17 25 24 
4 64 65 14 10 
4 19 20 65 64 
4 60 61 62 63 
4 20 29 37 38 
4 48 49 15 9 
4 2 17 49 48 
4 63 60 41 5 
4 18 40 60 63 
4 63 62 13 5 
4 18 21 62 63 
4 3 26 34 33 
4 33 34 25 17 
4 62 61 39 13 
4 21 38 61 62 
4 61 60 41 39 
4 38 40 60 61 
4 41 39 13 5 
4 22 29 37 43 
4 43 37 30 23 
4 11 31 36 42 
4 42 36 32 4 
4 9 15 45 44 
4 44 45 12 1 
4 15 20 38 45 
4 45 38 21 12 
4 9 19 40 44 
4 44 40 18 1 
4 44 45 38 40 
4 28 29 37 46 
4 46 37 30 27 
4 15 28 46 45 
4 45 46 27 12 
4 46 37 38 45 
4 8 22 43 47 
4 47 43 23 0 
4 8 28 46 47 
4 47 46 27 0 
4 47 43 37 46 
4 54 55 22 8 
4 26 34 56 55 
4 55 56 29 22 
4 33 34 56 57 
4 57 56 29 28 
4 3 33 57 54 
4 54 57 28 8 
4 54 55 56 57 
4 25 34 56 50 
4 50 56 29 20 
4 17 33 57 49 
4 49 57 28 15 
4 57 56 50 49 
4 7 35 59 58 
4 58 59 31 11 
4 16 35 59 52 
4 52 59 31 14 
4 67 66 53 52 
4 20 50 67 65 
4 65 67 52 14 
4 19 51 66 64 
4 64 66 53 10 
4 66 67 65 64 
4 24 25 69 68 
4 68 69 16 6 
4 25 50 67 69 
4 69 67 52 16 
4 24 51 66 68 
4 68 66 53 6 
4 68 69 67 66 
4 37 38 61 70 
4 70 61 39 36 
4 30 37 70 71 
4 71 70 36 32 
4 21 30 71 62 
4 62 71 32 13 
4 61 70 71 62 
4 20 29 72 65 
4 65 72 31 14 
4 29 37 70 72 
4 72 70 36 31 
4 65 72 70 61 
4 22 29 72 73 
4 73 72 31 11 
4 37 43 74 70 
4 70 74 42 36 
4 22 43 74 73 
4 73 74 42 11 
4 73 72 70 74 
4 23 30 71 75 
4 75 71 32 4 
4 23 43 74 75 
4 75 74 42 4 
4 74 70 71 75 
4 26 34 77 76 
4 76 77 35 7 
4 34 56 78 77 
4 77 78 59 35 
4 55 56 78 79 
4 79 78 59 58 
4 26 55 79 76 
4 76 79 58 7 
4 76 77 78 79 
4 29 56 78 72 
4 72 78 59 31 
4 22 55 79 73 
4 73 79 58 11 
4 79 78 72 73 
4 25 34 77 69 
4 69 77 35 16 
4 50 56 78 67 
4 67 78 59 52 
4 69 77 78 67 
4 67 78 72 65 

CELL_TYPES 141
9 
9 
9 
9 
9 
9 
9 
9 
9 
9 
9 
9 
9 
9 
9 
9 
9 
9 
9 
9 
9 
9 
9 
9 
9 
9 
9 
9 
9 
9 
9 
9 
9 
9 
9 
9 
9 
9 
9 
9 
9 
9 
9 
9 
9 
9 
9 
9 
9 
9 
9 
9 
9 
9 
9 
9 
9 
9 
9 
9 
9 
9 
9 
9 
9 
9 
9 
9 
9 
9 
9 
9 
9 
9 
9 
9 
9 
9 
9 
9 
9 
9 
9 
9 
9 
9 
9 
9 
9 
9 
9 
9 
9 
9 
9 
9 
9 
9 
9 
9 
9 
9 
9 
9 
9 
9 
9 
9 
9 
9 
9 
9 
9 
9 
9 
9 
9 
9 
9 
9 
9 
9 
9 
9 
9 
9 
9 
9 
9 
9 
9 
9 
9 
9 
9 
9 
9 
9 
9 
9 
9 
POINT_DATA 80
SCALARS GMDS_ID int 1
LOOKUP_TABLE default
0 1 2 3 4 5 6 7 8 9 10 11 12 13 14 15 16 17 18 19 20 21 22 23 24 25 26 27 28 29 30 31 32 33 34 35 36 37 38 39 40 41 42 43 44 45 46 47 48 49 50 51 52 53 54 55 56 57 58 59 60 61 62 63 64 65 66 67 68 69 70 71 72 73 74 75 76 77 78 79 
SCALARS geom_link_dim_0 int 1
LOOKUP_TABLE default
0 0 0 0 0 0 0 0 0 0 0 0 0 0 0 0 0 0 0 0 0 0 0 0 0 0 0 0 0 0 0 0 0 0 0 0 0 0 0 0 0 0 0 0 0 0 0 0 0 0 0 0 0 0 0 0 0 0 0 0 0 0 0 0 0 0 0 0 0 0 0 0 0 0 0 0 0 0 0 0 
SCALARS geom_link_id_0 int 1
LOOKUP_TABLE default
0 0 0 0 0 0 0 0 0 0 0 0 0 0 0 0 0 0 0 0 0 0 0 0 0 0 0 0 0 0 0 0 0 0 0 0 0 0 0 0 0 0 0 0 0 0 0 0 0 0 0 0 0 0 0 0 0 0 0 0 0 0 0 0 0 0 0 0 0 0 0 0 0 0 0 0 0 0 0 0 


CELL_DATA 141
SCALARS GMDS_ID int 1
LOOKUP_TABLE default
0 1 2 9 10 11 12 13 16 17 18 19 20 21 22 23 24 26 28 29 30 31 32 35 36 37 38 39 40 42 43 44 45 48 51 52 53 54 55 56 57 58 59 60 63 64 70 71 72 73 75 76 77 78 79 80 81 82 83 84 85 86 87 88 89 90 91 92 93 94 95 96 97 98 99 100 101 102 103 104 109 110 112 113 115 116 117 118 119 120 121 122 123 124 125 126 127 128 129 130 131 132 133 134 135 136 137 138 139 140 141 142 143 144 145 146 147 148 149 150 151 152 153 154 155 156 157 158 159 160 161 162 163 164 165 166 167 168 169 170 171 

SCALARS geom_link_dim_0 int 1
LOOKUP_TABLE default
0 0 0 0 0 0 0 0 0 0 0 0 0 0 0 0 0 0 0 0 0 0 0 0 0 0 0 0 0 0 0 0 0 0 0 0 0 0 0 0 0 0 0 0 0 0 0 0 0 0 0 0 0 0 0 0 0 0 0 0 0 0 0 0 0 0 0 0 0 0 0 0 0 0 0 0 0 0 0 0 0 0 0 0 0 0 0 0 0 0 0 0 0 0 0 0 0 0 0 0 0 0 0 0 0 0 0 0 0 0 0 0 0 0 0 0 0 0 0 0 0 0 0 0 0 0 0 0 0 0 0 0 0 0 0 0 0 0 0 0 0 

SCALARS geom_link_id_0 int 1
LOOKUP_TABLE default
0 0 0 0 0 0 0 0 0 0 0 0 0 0 0 0 0 0 0 0 0 0 0 0 0 0 0 0 0 0 0 0 0 0 0 0 0 0 0 0 0 0 0 0 0 0 0 0 0 0 0 0 0 0 0 0 0 0 0 0 0 0 0 0 0 0 0 0 0 0 0 0 0 0 0 0 0 0 0 0 0 0 0 0 0 0 0 0 0 0 0 0 0 0 0 0 0 0 0 0 0 0 0 0 0 0 0 0 0 0 0 0 0 0 0 0 0 0 0 0 0 0 0 0 0 0 0 0 0 0 0 0 0 0 0 0 0 0 0 0 0 

