# vtk DataFile Version 3.0
Generated by GMDS VTK Writer

ASCII
DATASET UNSTRUCTURED_GRID
POINTS 48 float
-5 -5 -5
-5 5 -5
5 5 -5
5 -5 -5
-5 -5 5
-5 5 5
5 5 5
5 -5 5
4 -5 -5
4 5 -5
4 5 5
4 -5 5
-5 1 -5
-5 1 5
4 1 5
4 1 -5
5 1 5
5 1 -5
-5 -5 -1
4 -5 -1
4 1 -1
-5 1 -1
4 5 -1
-5 5 -1
5 -5 -1
5 1 -1
5 5 -1
-5 3 -1
4 3 -1
4 3 5
-5 3 5
-5 3 -5
4 3 -5
5 3 -5
5 3 -1
5 3 5
-1 -5 -5
-1 1 -5
-1 1 -1
-1 -5 -1
-1 3 5
-1 3 -1
-1 5 -1
-1 5 5
-1 1 5
-1 -5 5
-1 3 -5
-1 5 -5

CELLS 75 375
4 23 27 41 42 
4 0 12 21 18 
4 15 20 28 32 
4 19 20 14 11 
4 8 15 20 19 
4 30 27 23 5 
4 13 21 27 30 
4 41 40 29 28 
4 29 28 22 10 
4 7 11 14 16 
4 27 30 40 41 
4 14 20 28 29 
4 3 8 15 17 
4 36 37 38 39 
4 18 21 13 4 
4 36 39 19 8 
4 0 18 39 36 
4 39 38 20 19 
4 18 21 38 39 
4 37 38 20 15 
4 3 8 19 24 
4 24 19 11 7 
4 15 17 25 20 
4 20 25 16 14 
4 3 17 25 24 
4 24 25 16 7 
4 24 19 20 25 
4 2 9 22 26 
4 26 22 10 6 
4 12 21 38 37 
4 36 37 15 8 
4 0 12 37 36 
4 32 28 22 9 
4 12 21 27 31 
4 31 27 23 1 
4 15 17 33 32 
4 32 33 2 9 
4 17 25 34 33 
4 33 34 26 2 
4 20 25 34 28 
4 28 34 26 22 
4 32 33 34 28 
4 16 25 34 35 
4 35 34 26 6 
4 14 16 35 29 
4 29 35 6 10 
4 28 34 35 29 
4 42 41 28 22 
4 5 23 42 43 
4 43 42 22 10 
4 5 30 40 43 
4 43 40 29 10 
4 40 41 42 43 
4 13 21 38 44 
4 44 38 20 14 
4 21 27 41 38 
4 38 41 28 20 
4 13 30 40 44 
4 44 40 29 14 
4 44 38 41 40 
4 4 13 44 45 
4 45 44 14 11 
4 4 18 39 45 
4 45 39 19 11 
4 39 38 44 45 
4 27 31 46 41 
4 41 46 32 28 
4 12 31 46 37 
4 37 46 32 15 
4 37 38 41 46 
4 1 23 42 47 
4 47 42 22 9 
4 1 31 46 47 
4 47 46 32 9 
4 46 41 42 47 

CELL_TYPES 75
9 
9 
9 
9 
9 
9 
9 
9 
9 
9 
9 
9 
9 
9 
9 
9 
9 
9 
9 
9 
9 
9 
9 
9 
9 
9 
9 
9 
9 
9 
9 
9 
9 
9 
9 
9 
9 
9 
9 
9 
9 
9 
9 
9 
9 
9 
9 
9 
9 
9 
9 
9 
9 
9 
9 
9 
9 
9 
9 
9 
9 
9 
9 
9 
9 
9 
9 
9 
9 
9 
9 
9 
9 
9 
9 
POINT_DATA 48
SCALARS GMDS_ID int 1
LOOKUP_TABLE default
0 1 2 3 4 5 6 7 8 9 10 11 12 13 14 15 16 17 18 19 20 21 22 23 24 25 26 27 28 29 30 31 32 33 34 35 36 37 38 39 40 41 42 43 44 45 46 47 
SCALARS geom_link_dim_0 int 1
LOOKUP_TABLE default
0 0 0 0 0 0 0 0 0 0 0 0 0 0 0 0 0 0 0 0 0 0 0 0 0 0 0 0 0 0 0 0 0 0 0 0 0 0 0 0 0 0 0 0 0 0 0 0 
SCALARS geom_link_id_0 int 1
LOOKUP_TABLE default
0 0 0 0 0 0 0 0 0 0 0 0 0 0 0 0 0 0 0 0 0 0 0 0 0 0 0 0 0 0 0 0 0 0 0 0 0 0 0 0 0 0 0 0 0 0 0 0 


CELL_DATA 75
SCALARS GMDS_ID int 1
LOOKUP_TABLE default
0 1 4 7 10 12 13 18 19 20 21 22 24 25 27 29 30 33 34 35 36 37 38 39 40 41 42 43 44 45 46 47 48 49 50 52 53 54 55 56 57 58 59 60 61 62 63 64 65 66 67 68 69 70 71 72 73 74 75 76 77 78 79 80 81 82 83 84 85 86 87 88 89 90 91 

SCALARS geom_link_dim_0 int 1
LOOKUP_TABLE default
0 0 0 0 0 0 0 0 0 0 0 0 0 0 0 0 0 0 0 0 0 0 0 0 0 0 0 0 0 0 0 0 0 0 0 0 0 0 0 0 0 0 0 0 0 0 0 0 0 0 0 0 0 0 0 0 0 0 0 0 0 0 0 0 0 0 0 0 0 0 0 0 0 0 0 

SCALARS geom_link_id_0 int 1
LOOKUP_TABLE default
0 0 0 0 0 0 0 0 0 0 0 0 0 0 0 0 0 0 0 0 0 0 0 0 0 0 0 0 0 0 0 0 0 0 0 0 0 0 0 0 0 0 0 0 0 0 0 0 0 0 0 0 0 0 0 0 0 0 0 0 0 0 0 0 0 0 0 0 0 0 0 0 0 0 0 

