# vtk DataFile Version 3.0
Generated by GMDS VTK Writer

ASCII
DATASET UNSTRUCTURED_GRID
POINTS 48 float
-5 -5 -5
-5 5 -5
5 5 -5
5 -5 -5
-5 -5 5
-5 5 5
5 5 5
5 -5 5
1 -5 -5
1 5 -5
1 5 5
1 -5 5
-5 4 -5
-5 4 5
1 4 5
1 4 -5
5 4 5
5 4 -5
-5 5 -1
1 5 -1
1 4 -1
-5 4 -1
1 -5 -1
-5 -5 -1
5 5 -1
5 4 -1
5 -5 -1
-5 -1 -5
1 -1 -5
1 -1 -1
-5 -1 -1
1 -1 5
-5 -1 5
5 -1 -5
5 -1 -1
5 -1 5
-0.999999999999999 -1 5
-1 -1 -1
-1 4 -1
-1 4 5
-0.999999999999999 5 -1
-0.999999999999999 5 5
-0.999999999999999 -5 5
-1 -5 -1
-0.999999999999999 5 -5
-1 4 -5
-1 -1 -5
-1 -5 -5

CELLS 75 375
4 10 14 39 41 
4 1 12 21 18 
4 31 29 20 14 
4 19 20 14 10 
4 11 22 29 31 
4 9 15 20 19 
4 27 30 21 12 
4 0 23 30 27 
4 40 38 21 18 
4 28 29 20 15 
4 6 10 14 16 
4 19 20 38 40 
4 8 22 29 28 
4 2 9 15 17 
4 36 37 38 39 
4 18 21 13 5 
4 39 36 32 13 
4 14 31 36 39 
4 39 38 21 13 
4 14 20 38 39 
4 38 37 30 21 
4 2 9 19 24 
4 24 19 10 6 
4 15 17 25 20 
4 20 25 16 14 
4 2 17 25 24 
4 24 25 16 6 
4 24 19 20 25 
4 3 8 22 26 
4 26 22 11 7 
4 20 29 37 38 
4 37 36 32 30 
4 29 31 36 37 
4 4 23 30 32 
4 32 30 21 13 
4 3 8 28 33 
4 33 28 15 17 
4 22 26 34 29 
4 29 34 25 20 
4 3 26 34 33 
4 33 34 25 17 
4 33 28 29 34 
4 7 11 31 35 
4 35 31 14 16 
4 7 26 34 35 
4 35 34 25 16 
4 34 29 31 35 
4 41 39 13 5 
4 10 19 40 41 
4 41 40 18 5 
4 40 38 39 41 
4 11 22 43 42 
4 42 43 23 4 
4 22 29 37 43 
4 43 37 30 23 
4 11 31 36 42 
4 42 36 32 4 
4 42 43 37 36 
4 9 15 45 44 
4 44 45 12 1 
4 15 20 38 45 
4 45 38 21 12 
4 9 19 40 44 
4 44 40 18 1 
4 44 45 38 40 
4 28 29 37 46 
4 46 37 30 27 
4 15 28 46 45 
4 45 46 27 12 
4 46 37 38 45 
4 8 22 43 47 
4 47 43 23 0 
4 8 28 46 47 
4 47 46 27 0 
4 47 43 37 46 

CELL_TYPES 75
9 
9 
9 
9 
9 
9 
9 
9 
9 
9 
9 
9 
9 
9 
9 
9 
9 
9 
9 
9 
9 
9 
9 
9 
9 
9 
9 
9 
9 
9 
9 
9 
9 
9 
9 
9 
9 
9 
9 
9 
9 
9 
9 
9 
9 
9 
9 
9 
9 
9 
9 
9 
9 
9 
9 
9 
9 
9 
9 
9 
9 
9 
9 
9 
9 
9 
9 
9 
9 
9 
9 
9 
9 
9 
9 
POINT_DATA 48
SCALARS GMDS_ID int 1
LOOKUP_TABLE default
0 1 2 3 4 5 6 7 8 9 10 11 12 13 14 15 16 17 18 19 20 21 22 23 24 25 26 27 28 29 30 31 32 33 34 35 36 37 38 39 40 41 42 43 44 45 46 47 
SCALARS geom_link_dim_0 int 1
LOOKUP_TABLE default
0 0 0 0 0 0 0 0 0 0 0 0 0 0 0 0 0 0 0 0 0 0 0 0 0 0 0 0 0 0 0 0 0 0 0 0 0 0 0 0 0 0 0 0 0 0 0 0 
SCALARS geom_link_id_0 int 1
LOOKUP_TABLE default
0 0 0 0 0 0 0 0 0 0 0 0 0 0 0 0 0 0 0 0 0 0 0 0 0 0 0 0 0 0 0 0 0 0 0 0 0 0 0 0 0 0 0 0 0 0 0 0 


CELL_DATA 75
SCALARS GMDS_ID int 1
LOOKUP_TABLE default
0 1 5 7 8 10 12 13 18 19 20 21 22 24 25 27 29 30 33 34 35 36 37 38 39 40 41 42 43 44 45 46 47 49 50 52 53 54 55 56 57 58 59 60 61 62 63 64 65 66 67 68 69 70 71 72 73 74 75 76 77 78 79 80 81 82 83 84 85 86 87 88 89 90 91 

SCALARS geom_link_dim_0 int 1
LOOKUP_TABLE default
0 0 0 0 0 0 0 0 0 0 0 0 0 0 0 0 0 0 0 0 0 0 0 0 0 0 0 0 0 0 0 0 0 0 0 0 0 0 0 0 0 0 0 0 0 0 0 0 0 0 0 0 0 0 0 0 0 0 0 0 0 0 0 0 0 0 0 0 0 0 0 0 0 0 0 

SCALARS geom_link_id_0 int 1
LOOKUP_TABLE default
0 0 0 0 0 0 0 0 0 0 0 0 0 0 0 0 0 0 0 0 0 0 0 0 0 0 0 0 0 0 0 0 0 0 0 0 0 0 0 0 0 0 0 0 0 0 0 0 0 0 0 0 0 0 0 0 0 0 0 0 0 0 0 0 0 0 0 0 0 0 0 0 0 0 0 

