# vtk DataFile Version 3.0
Generated by GMDS VTK Writer

ASCII
DATASET UNSTRUCTURED_GRID
POINTS 80 float
-5 -5 -5
-5 5 -5
5 5 -5
5 -5 -5
-5 -5 5
-5 5 5
5 5 5
5 -5 5
-5 1 -5
-5 1 5
5 1 5
5 1 -5
-5 -5 1
5 -5 1
5 1 1
-5 1 1
5 5 1
-5 5 1
-1 -5 -5
-1 1 -5
-1 1 1
-1 -5 1
-1 1 5
-1 -5 5
-1 5 -5
-1 5 1
-1 5 5
-1 4 -5
-1 4 1
5 4 1
5 4 -5
-5 4 -5
-5 4 1
-5 4 5
-1 4 5
5 4 5
-5 -5 4
-5 1 4
-1 1 4
-1 -5 4
5 1 4
5 -5 4
-1 4 4
-5 4 4
-1 5 4
-5 5 4
5 4 4
5 5 4
4 4 -5
4 4 1
4 5 1
4 5 -5
4 1 -5
4 1 1
4 -5 -5
4 -5 1
4 1 4
4 -5 4
4 1 5
4 -5 5
4 4 5
4 4 4
4 5 5
4 5 4
-1 -5 -1
-1 1 -1
4 1 -1
4 -5 -1
-5 -5 -1
-5 1 -1
4 4 -1
5 4 -1
5 1 -1
-1 4 -1
-5 4 -1
-1 5 -1
-5 5 -0.999999999999999
4 5 -1
5 5 -1
5 -5 -1

CELLS 141 705
4 18 19 52 54 
4 15 20 28 32 
4 72 66 53 14 
4 12 15 20 21 
4 11 52 66 72 
4 72 71 29 14 
4 11 30 71 72 
4 71 70 49 29 
4 30 48 70 71 
4 0 8 19 18 
4 70 66 53 49 
4 7 10 40 41 
4 48 52 66 70 
4 68 69 65 64 
4 68 64 21 12 
4 36 37 38 39 
4 0 18 64 68 
4 52 48 30 11 
4 19 27 48 52 
4 4 9 22 23 
4 69 65 20 15 
4 53 49 29 14 
4 20 28 49 53 
4 36 39 21 12 
4 4 23 39 36 
4 38 39 21 20 
4 22 23 39 38 
4 8 19 65 69 
4 37 38 20 15 
4 9 22 38 37 
4 36 37 15 12 
4 4 9 37 36 
4 32 28 25 17 
4 8 19 27 31 
4 31 27 24 1 
4 51 48 30 2 
4 24 27 48 51 
4 9 22 34 33 
4 33 34 26 5 
4 50 49 29 16 
4 25 28 49 50 
4 68 69 15 12 
4 0 8 69 68 
4 41 40 14 13 
4 64 65 66 67 
4 64 67 55 21 
4 18 54 67 64 
4 22 34 42 38 
4 38 42 28 20 
4 33 34 42 43 
4 43 42 28 32 
4 9 33 43 37 
4 37 43 32 15 
4 37 38 42 43 
4 26 34 42 44 
4 44 42 28 25 
4 5 26 44 45 
4 45 44 25 17 
4 5 33 43 45 
4 45 43 32 17 
4 43 42 44 45 
4 66 67 55 53 
4 52 54 67 66 
4 10 35 46 40 
4 40 46 29 14 
4 65 66 53 20 
4 19 52 66 65 
4 64 65 20 21 
4 6 35 46 47 
4 47 46 29 16 
4 18 19 65 64 
4 54 52 11 3 
4 20 21 55 53 
4 53 55 13 14 
4 38 39 57 56 
4 56 57 41 40 
4 21 39 57 55 
4 55 57 41 13 
4 20 38 56 53 
4 53 56 40 14 
4 56 57 55 53 
4 22 23 59 58 
4 58 59 7 10 
4 23 39 57 59 
4 59 57 41 7 
4 22 38 56 58 
4 58 56 40 10 
4 58 59 57 56 
4 22 34 60 58 
4 58 60 35 10 
4 34 42 61 60 
4 60 61 46 35 
4 38 42 61 56 
4 56 61 46 40 
4 58 60 61 56 
4 28 42 61 49 
4 49 61 46 29 
4 56 61 49 53 
4 26 34 60 62 
4 62 60 35 6 
4 42 44 63 61 
4 61 63 47 46 
4 26 44 63 62 
4 62 63 47 6 
4 62 60 61 63 
4 25 44 63 50 
4 50 63 47 16 
4 63 61 49 50 
4 66 70 71 72 
4 19 27 73 65 
4 65 73 28 20 
4 27 48 70 73 
4 73 70 49 28 
4 65 73 70 66 
4 27 31 74 73 
4 73 74 32 28 
4 8 31 74 69 
4 69 74 32 15 
4 69 65 73 74 
4 24 27 73 75 
4 75 73 28 25 
4 1 24 75 76 
4 76 75 25 17 
4 1 31 74 76 
4 76 74 32 17 
4 74 73 75 76 
4 48 51 77 70 
4 70 77 50 49 
4 2 30 71 78 
4 78 71 29 16 
4 2 51 77 78 
4 78 77 50 16 
4 77 70 71 78 
4 24 51 77 75 
4 75 77 50 25 
4 75 73 70 77 
4 3 11 72 79 
4 79 72 14 13 
4 3 54 67 79 
4 79 67 55 13 
4 67 66 72 79 

CELL_TYPES 141
9 
9 
9 
9 
9 
9 
9 
9 
9 
9 
9 
9 
9 
9 
9 
9 
9 
9 
9 
9 
9 
9 
9 
9 
9 
9 
9 
9 
9 
9 
9 
9 
9 
9 
9 
9 
9 
9 
9 
9 
9 
9 
9 
9 
9 
9 
9 
9 
9 
9 
9 
9 
9 
9 
9 
9 
9 
9 
9 
9 
9 
9 
9 
9 
9 
9 
9 
9 
9 
9 
9 
9 
9 
9 
9 
9 
9 
9 
9 
9 
9 
9 
9 
9 
9 
9 
9 
9 
9 
9 
9 
9 
9 
9 
9 
9 
9 
9 
9 
9 
9 
9 
9 
9 
9 
9 
9 
9 
9 
9 
9 
9 
9 
9 
9 
9 
9 
9 
9 
9 
9 
9 
9 
9 
9 
9 
9 
9 
9 
9 
9 
9 
9 
9 
9 
9 
9 
9 
9 
9 
9 
POINT_DATA 80
SCALARS GMDS_ID int 1
LOOKUP_TABLE default
0 1 2 3 4 5 6 7 8 9 10 11 12 13 14 15 16 17 18 19 20 21 22 23 24 25 26 27 28 29 30 31 32 33 34 35 36 37 38 39 40 41 42 43 44 45 46 47 48 49 50 51 52 53 54 55 56 57 58 59 60 61 62 63 64 65 66 67 68 69 70 71 72 73 74 75 76 77 78 79 
SCALARS geom_link_dim int 1
LOOKUP_TABLE default
1 1 1 1 1 1 1 1 2 2 2 2 2 2 3 3 2 2 2 3 0 3 3 2 2 3 2 3 0 3 2 2 3 2 3 2 2 3 0 3 3 2 0 3 3 2 3 2 3 0 3 2 3 0 2 3 0 3 3 2 3 0 2 3 3 0 0 3 2 3 0 3 3 0 3 3 2 3 2 2 
SCALARS geom_link_id int 1
LOOKUP_TABLE default
18 20 24 21 17 19 23 22 32 33 24 34 31 29 12 17 25 28 30 13 0 18 10 35 36 11 23 13 0 12 34 32 17 33 10 24 31 17 0 18 12 29 0 17 11 28 12 25 13 0 11 36 13 0 30 18 0 18 10 35 10 0 23 11 18 -1 -1 18 31 17 -1 12 12 -1 17 11 28 11 25 29 


CELL_DATA 141
SCALARS GMDS_ID int 1
LOOKUP_TABLE default
0 3 4 6 7 9 11 12 13 14 19 20 21 22 24 25 27 29 30 31 32 33 34 36 37 38 39 41 42 43 44 47 48 49 50 52 53 56 57 58 59 61 62 64 65 66 67 68 69 70 71 72 73 74 75 76 77 78 79 80 81 82 83 84 85 86 87 88 89 90 91 92 93 94 98 99 100 101 102 103 104 105 106 107 108 109 110 111 112 113 114 115 116 117 118 119 120 121 122 123 124 125 126 127 128 129 130 131 132 133 134 135 136 137 138 139 140 141 142 143 144 145 146 147 148 149 150 151 152 153 154 155 156 157 158 159 160 161 162 163 164 

SCALARS geom_link_dim int 1
LOOKUP_TABLE default
0 0 0 0 0 0 0 0 0 0 0 0 0 0 0 0 0 0 0 0 0 0 0 0 0 0 0 0 0 0 0 0 0 0 0 0 0 0 0 0 0 0 0 0 0 0 0 0 0 0 0 0 0 0 0 0 0 0 0 0 0 0 0 0 0 0 0 0 0 0 0 0 0 0 0 0 0 0 0 0 0 0 0 0 0 0 0 0 0 0 0 0 0 0 0 0 0 0 0 0 0 0 0 0 0 0 0 0 0 0 0 0 0 0 0 0 0 0 0 0 0 0 0 0 0 0 0 0 0 0 0 0 0 0 0 0 0 0 0 0 0 

SCALARS geom_link_id int 1
LOOKUP_TABLE default
0 0 -1 0 -1 -1 -1 -1 -1 0 -1 0 -1 -1 -1 0 -1 0 0 0 -1 0 0 0 0 0 0 -1 0 0 0 0 0 0 0 0 0 0 0 0 0 -1 -1 0 -1 -1 -1 0 0 0 0 0 0 0 0 0 0 0 0 0 0 -1 -1 0 0 -1 -1 -1 0 0 -1 0 0 0 0 0 0 0 0 0 0 0 0 0 0 0 0 0 0 0 0 0 0 0 0 0 0 0 0 0 0 0 0 0 0 0 0 0 -1 -1 -1 -1 -1 -1 -1 -1 -1 -1 -1 -1 -1 -1 -1 -1 -1 -1 -1 -1 -1 -1 -1 -1 -1 -1 -1 -1 -1 -1 -1 -1 -1 

