# vtk DataFile Version 3.0
Generated by GMDS VTK Writer

ASCII
DATASET UNSTRUCTURED_GRID
POINTS 100 float
-5 -5 -5
-5 5 -5
5 5 -5
5 -5 -5
-5 -5 5
-5 5 5
5 5 5
5 -5 5
4 -5 -5
4 5 -5
4 5 5
4 -5 5
-5 1 -5
-5 1 5
4 1 5
4 1 -5
5 1 5
5 1 -5
-5 -5 -1
4 -5 -1
4 1 -1
-5 1 -1
4 5 -1
-5 5 -1
5 -5 -1
5 1 -1
5 5 -1
-5 3 -1
4 3 -1
4 3 5
-5 3 5
-5 3 -5
4 3 -5
5 3 -5
5 3 -1
5 3 5
-1 -5 -5
-1 1 -5
-1 1 -1
-1 -5 -1
-1 3 5
-1 3 -1
-1 5 -1
-1 5 5
-1 1 5
-1 -5 5
-1 3 -5
-1 5 -5
5 -5 3
4 -5 3
4 1 3
5 1 3
5 3 3
4 3 3
5 5 3
4 5 3
-5 5 3
-5 3 3
-1 3 3
-1 5 3
-5 1 3
-1 1 3
-5 -5 3
-1 -5 3
4 1 1
5 1 1
5 3 1
4 3 1
5 -5 0.999999999999999
4 -5 1
5 5 0.999999999999999
4 5 1
-5 5 1
-5 3 1
-1 3 1
-1 5 1
-5 1 1
-1 1 1
-5 -5 0.999999999999999
-1 -5 0.999999999999999
-1 -1 -5
-1 -1 -1
4 -1 -1
4 -1 -5
-5 -0.999999999999999 -5
-5 -1 -1
5 -1 -5
5 -1 -1
5 -1 5
4 -1 5
4 -1 3
5 -1 3
5 -1 1
4 -1 1
-5 -1 5
-1 -1 5
-1 -1 3
-5 -1 3
-1 -1 1
-5 -1 1

CELLS 184 920
4 23 27 41 42 
4 6 35 52 54 
4 50 51 52 53 
4 15 20 28 32 
4 7 11 89 88 
4 14 29 53 50 
4 56 57 73 72 
4 86 83 82 87 
4 29 35 52 53 
4 86 87 25 17 
4 67 66 70 71 
4 67 71 22 28 
4 16 35 52 51 
4 3 24 87 86 
4 53 55 71 67 
4 70 71 22 26 
4 54 55 71 70 
4 66 70 26 34 
4 82 87 25 20 
4 14 16 51 50 
4 52 54 70 66 
4 19 24 87 82 
4 36 39 19 8 
4 0 18 39 36 
4 86 83 15 17 
4 37 38 20 15 
4 3 8 19 24 
4 15 17 25 20 
4 2 9 22 26 
4 12 21 38 37 
4 32 28 22 9 
4 12 21 27 31 
4 31 27 23 1 
4 7 11 49 48 
4 15 17 33 32 
4 32 33 2 9 
4 17 25 34 33 
4 33 34 26 2 
4 20 25 34 28 
4 28 34 26 22 
4 32 33 34 28 
4 68 69 19 24 
4 14 16 35 29 
4 29 35 6 10 
4 48 49 69 68 
4 42 41 28 22 
4 64 65 66 67 
4 64 67 28 20 
4 5 30 40 43 
4 43 40 29 10 
4 50 53 67 64 
4 66 67 28 34 
4 52 53 67 66 
4 21 27 41 38 
4 38 41 28 20 
4 13 30 40 44 
4 44 40 29 14 
4 65 66 34 25 
4 51 52 66 65 
4 64 65 25 20 
4 50 51 65 64 
4 27 31 46 41 
4 41 46 32 28 
4 12 31 46 37 
4 37 46 32 15 
4 37 38 41 46 
4 1 23 42 47 
4 47 42 22 9 
4 1 31 46 47 
4 47 46 32 9 
4 46 41 42 47 
4 3 8 83 86 
4 6 10 55 54 
4 84 85 81 80 
4 10 29 53 55 
4 84 80 37 12 
4 53 52 54 55 
4 5 30 57 56 
4 0 36 80 84 
4 30 40 58 57 
4 85 81 38 21 
4 40 43 59 58 
4 18 39 81 85 
4 5 43 59 56 
4 84 85 21 12 
4 56 57 58 59 
4 29 40 58 53 
4 0 18 85 84 
4 10 43 59 55 
4 80 81 82 83 
4 59 58 53 55 
4 13 30 57 60 
4 83 80 37 15 
4 40 44 61 58 
4 8 36 80 83 
4 13 44 61 60 
4 83 82 20 15 
4 60 57 58 61 
4 14 44 61 50 
4 8 19 82 83 
4 61 58 53 50 
4 82 81 38 20 
4 19 39 81 82 
4 4 45 63 62 
4 80 81 38 37 
4 11 45 63 49 
4 36 39 81 80 
4 72 73 27 23 
4 57 58 74 73 
4 73 74 41 27 
4 58 59 75 74 
4 74 75 42 41 
4 56 59 75 72 
4 72 75 42 23 
4 72 73 74 75 
4 53 58 74 67 
4 67 74 41 28 
4 55 59 75 71 
4 71 75 42 22 
4 75 74 67 71 
4 57 60 76 73 
4 73 76 21 27 
4 58 61 77 74 
4 74 77 38 41 
4 60 61 77 76 
4 76 77 38 21 
4 76 73 74 77 
4 50 61 77 64 
4 64 77 38 20 
4 77 74 67 64 
4 62 63 79 78 
4 78 79 39 18 
4 49 63 79 69 
4 69 79 39 19 
4 88 89 14 16 
4 11 49 90 89 
4 89 90 50 14 
4 48 49 90 91 
4 91 90 50 51 
4 7 48 91 88 
4 88 91 51 16 
4 88 89 90 91 
4 68 69 93 92 
4 92 93 64 65 
4 19 69 93 82 
4 82 93 64 20 
4 24 68 92 87 
4 87 92 65 25 
4 92 93 82 87 
4 49 69 93 90 
4 90 93 64 50 
4 48 68 92 91 
4 91 92 65 51 
4 91 90 93 92 
4 4 45 95 94 
4 94 95 44 13 
4 45 63 96 95 
4 95 96 61 44 
4 62 63 96 97 
4 97 96 61 60 
4 4 62 97 94 
4 94 97 60 13 
4 94 95 96 97 
4 11 45 95 89 
4 89 95 44 14 
4 49 63 96 90 
4 90 96 61 50 
4 89 95 96 90 
4 63 79 98 96 
4 96 98 77 61 
4 78 79 98 99 
4 99 98 77 76 
4 62 78 99 97 
4 97 99 76 60 
4 97 96 98 99 
4 39 79 98 81 
4 81 98 77 38 
4 18 78 99 85 
4 85 99 76 21 
4 99 98 81 85 
4 69 79 98 93 
4 93 98 77 64 
4 90 96 98 93 
4 93 98 81 82 

CELL_TYPES 184
9 
9 
9 
9 
9 
9 
9 
9 
9 
9 
9 
9 
9 
9 
9 
9 
9 
9 
9 
9 
9 
9 
9 
9 
9 
9 
9 
9 
9 
9 
9 
9 
9 
9 
9 
9 
9 
9 
9 
9 
9 
9 
9 
9 
9 
9 
9 
9 
9 
9 
9 
9 
9 
9 
9 
9 
9 
9 
9 
9 
9 
9 
9 
9 
9 
9 
9 
9 
9 
9 
9 
9 
9 
9 
9 
9 
9 
9 
9 
9 
9 
9 
9 
9 
9 
9 
9 
9 
9 
9 
9 
9 
9 
9 
9 
9 
9 
9 
9 
9 
9 
9 
9 
9 
9 
9 
9 
9 
9 
9 
9 
9 
9 
9 
9 
9 
9 
9 
9 
9 
9 
9 
9 
9 
9 
9 
9 
9 
9 
9 
9 
9 
9 
9 
9 
9 
9 
9 
9 
9 
9 
9 
9 
9 
9 
9 
9 
9 
9 
9 
9 
9 
9 
9 
9 
9 
9 
9 
9 
9 
9 
9 
9 
9 
9 
9 
9 
9 
9 
9 
9 
9 
9 
9 
9 
9 
9 
9 
9 
9 
9 
9 
9 
9 
POINT_DATA 100
SCALARS GMDS_ID int 1
LOOKUP_TABLE default
0 1 2 3 4 5 6 7 8 9 10 11 12 13 14 15 16 17 18 19 20 21 22 23 24 25 26 27 28 29 30 31 32 33 34 35 36 37 38 39 40 41 42 43 44 45 46 47 48 49 50 51 52 53 54 55 56 57 58 59 60 61 62 63 64 65 66 67 68 69 70 71 72 73 74 75 76 77 78 79 80 81 82 83 84 85 86 87 88 89 90 91 92 93 94 95 96 97 98 99 
SCALARS geom_link_dim_0 int 1
LOOKUP_TABLE default
0 0 0 0 0 0 0 0 0 0 0 0 0 0 0 0 0 0 0 0 0 0 0 0 0 0 0 0 0 0 0 0 0 0 0 0 0 0 0 0 0 0 0 0 0 0 0 0 0 0 0 0 0 0 0 0 0 0 0 0 0 0 0 0 0 0 0 0 0 0 0 0 0 0 0 0 0 0 0 0 0 0 0 0 0 0 0 0 0 0 0 0 0 0 0 0 0 0 0 0 
SCALARS geom_link_id_0 int 1
LOOKUP_TABLE default
0 0 0 0 0 0 0 0 0 0 0 0 0 0 0 0 0 0 0 0 0 0 0 0 0 0 0 0 0 0 0 0 0 0 0 0 0 0 0 0 0 0 0 0 0 0 0 0 0 0 0 0 0 0 0 0 0 0 0 0 0 0 0 0 0 0 0 0 0 0 0 0 0 0 0 0 0 0 0 0 0 0 0 0 0 0 0 0 0 0 0 0 0 0 0 0 0 0 0 0 


CELL_DATA 184
SCALARS GMDS_ID int 1
LOOKUP_TABLE default
0 2 3 4 5 6 7 8 9 11 12 13 14 16 18 19 21 22 23 26 27 28 29 30 32 35 36 38 43 45 48 49 50 51 52 53 54 55 56 57 58 60 61 62 63 64 65 66 67 68 69 70 71 72 73 74 75 76 79 80 81 82 83 84 85 86 87 88 89 90 91 92 93 94 95 96 97 98 99 100 101 102 103 104 105 106 107 108 109 110 111 112 113 114 115 116 117 118 119 120 121 123 125 126 127 129 130 132 133 134 135 136 137 138 139 140 141 142 143 144 145 146 147 148 149 150 151 152 153 154 159 160 162 163 165 166 167 168 169 170 171 172 173 174 175 176 177 178 179 180 181 182 183 184 185 186 187 188 189 190 191 192 193 194 195 196 197 198 199 200 201 202 203 204 205 206 207 208 209 210 211 212 213 214 

SCALARS geom_link_dim_0 int 1
LOOKUP_TABLE default
0 0 0 0 0 0 0 0 0 0 0 0 0 0 0 0 0 0 0 0 0 0 0 0 0 0 0 0 0 0 0 0 0 0 0 0 0 0 0 0 0 0 0 0 0 0 0 0 0 0 0 0 0 0 0 0 0 0 0 0 0 0 0 0 0 0 0 0 0 0 0 0 0 0 0 0 0 0 0 0 0 0 0 0 0 0 0 0 0 0 0 0 0 0 0 0 0 0 0 0 0 0 0 0 0 0 0 0 0 0 0 0 0 0 0 0 0 0 0 0 0 0 0 0 0 0 0 0 0 0 0 0 0 0 0 0 0 0 0 0 0 0 0 0 0 0 0 0 0 0 0 0 0 0 0 0 0 0 0 0 0 0 0 0 0 0 0 0 0 0 0 0 0 0 0 0 0 0 0 0 0 0 0 0 

SCALARS geom_link_id_0 int 1
LOOKUP_TABLE default
0 0 0 0 0 0 0 0 0 0 0 0 0 0 0 0 0 0 0 0 0 0 0 0 0 0 0 0 0 0 0 0 0 0 0 0 0 0 0 0 0 0 0 0 0 0 0 0 0 0 0 0 0 0 0 0 0 0 0 0 0 0 0 0 0 0 0 0 0 0 0 0 0 0 0 0 0 0 0 0 0 0 0 0 0 0 0 0 0 0 0 0 0 0 0 0 0 0 0 0 0 0 0 0 0 0 0 0 0 0 0 0 0 0 0 0 0 0 0 0 0 0 0 0 0 0 0 0 0 0 0 0 0 0 0 0 0 0 0 0 0 0 0 0 0 0 0 0 0 0 0 0 0 0 0 0 0 0 0 0 0 0 0 0 0 0 0 0 0 0 0 0 0 0 0 0 0 0 0 0 0 0 0 0 

