# vtk DataFile Version 3.0
Generated by GMDS VTK Writer

ASCII
DATASET UNSTRUCTURED_GRID
POINTS 180 float
-5 -5 -5
-5 5 -5
5 5 -5
5 -5 -5
-5 -5 5
-5 5 5
5 5 5
5 -5 5
-5 1 -5
-5 1 5
5 1 5
5 1 -5
-5 -5 1
5 -5 1
5 1 1
-5 1 1
5 5 1
-5 5 1
-1 -5 -5
-1 1 -5
-1 1 1
-1 -5 1
-1 1 5
-1 -5 5
-1 5 -5
-1 5 1
-1 5 5
-1 4 -5
-1 4 1
5 4 1
5 4 -5
-5 4 -5
-5 4 1
-5 4 5
-1 4 5
5 4 5
-5 -5 4
-5 1 4
-1 1 4
-1 -5 4
5 1 4
5 -5 4
-1 4 4
-5 4 4
-1 5 4
-5 5 4
5 4 4
5 5 4
4 4 -5
4 4 1
4 5 1
4 5 -5
4 1 -5
4 1 1
4 -5 -5
4 -5 1
4 1 4
4 -5 4
4 1 5
4 -5 5
4 4 5
4 4 4
4 5 5
4 5 4
-1 -5 -1
-1 1 -1
4 1 -1
4 -5 -1
-5 -5 -1
-5 1 -1
4 4 -1
5 4 -1
5 1 -1
-1 4 -1
-5 4 -1
-1 5 -1
-5 5 -0.999999999999999
4 5 -1
5 5 -1
5 -5 -1
1 1 4
1 -5 4
1 -5 1
1 1 1
1 1 5
1 -5 5
1 4 5
1 4 4
1 4 1
1 5 5
1 5 4
1 5 1
1 -5 -1
1 1 -1
0.999999999999999 -5 -5
1 1 -5
1 4 -5
1 4 -1
1 5 -5
1 5 -1
-5 -1 -1
-1 -1 -1
-1 -1 1
-5 -1 1
-5 -0.999999999999999 -5
-1 -1 -5
1 -1 5
1 -1 4
4 -1 4
4 -1 5
-1 -1 5
-1 -1 4
-5 -1 4
-5 -1 5
1 -1 1
4 -1 1
5 -1 4
5 -1 1
5 -1 5
5 -1 -5
4 -1 -5
4 -1 -1
5 -1 -1
1 -1 -1
1 -1 -5
5 3 -1
4 3 -1
4 3 1
5 3 1
5 3 -5
4 3 -5
1 3 5
1 3 4
4 3 4
4 3 5
-1 3 5
-1 3 4
-5 3 -1
-1 3 -1
-1 3 1
-5 3 1
-5 3 -5
-1 3 -5
-5 3 4
-5 3 5
1 3 1
5 3 4
5 3 5
1 3 -1
1 3 -5
3 3 4
3 3 5
3 4 5
3 4 4
3 1 4
3 1 5
3 -1 4
3 -1 5
3 -5 4
3 -5 5
3 3 -5
3 3 -1
3 4 -1
3 4 -5
3 1 -5
3 1 -1
3 5 5
3 5 4
3 4 1
3 5 1
3 5 -5
3 5 -1
3 3 1
3 1 1
3 -5 1
3 -1 1
3 -5 -5
3 -5 -1
3 -1 -1
3 -1 -5

CELLS 365 1825
4 110 106 84 22 
4 28 42 87 88 
4 52 66 165 164 
4 160 161 162 163 
4 72 66 53 14 
4 163 160 149 96 
4 140 137 74 32 
4 11 52 66 72 
4 48 130 160 163 
4 163 162 97 96 
4 48 70 162 163 
4 71 70 49 29 
4 30 48 70 71 
4 15 69 137 140 
4 34 42 87 86 
4 162 161 148 97 
4 70 126 161 162 
4 140 139 28 32 
4 161 160 149 148 
4 15 20 139 140 
4 126 130 160 161 
4 139 138 73 28 
4 68 64 21 12 
4 20 65 138 139 
4 22 38 80 84 
4 0 18 64 68 
4 158 159 157 156 
4 23 85 106 110 
4 138 137 74 73 
4 69 65 20 15 
4 158 156 107 81 
4 111 107 80 38 
4 23 39 81 85 
4 36 39 21 12 
4 4 23 39 36 
4 65 69 137 138 
4 135 136 132 131 
4 135 131 86 34 
4 8 19 65 69 
4 37 38 20 15 
4 9 22 38 37 
4 22 84 131 135 
4 136 132 87 42 
4 38 80 132 136 
4 135 136 42 34 
4 32 28 25 17 
4 57 108 156 158 
4 31 27 24 1 
4 51 48 30 2 
4 39 81 107 111 
4 20 38 80 83 
4 22 38 136 135 
4 159 157 106 85 
4 33 34 26 5 
4 50 49 29 16 
4 110 111 38 22 
4 133 134 60 61 
4 23 39 111 110 
4 59 109 157 159 
4 158 159 85 81 
4 33 34 42 43 
4 43 42 28 32 
4 57 59 159 158 
4 156 157 155 154 
4 154 156 107 80 
4 26 34 42 44 
4 44 42 28 25 
4 5 26 44 45 
4 45 44 25 17 
4 5 33 43 45 
4 45 43 32 17 
4 43 42 44 45 
4 56 58 134 133 
4 56 108 156 154 
4 155 157 106 84 
4 108 109 58 56 
4 6 35 46 47 
4 47 46 29 16 
4 132 131 86 87 
4 80 84 131 132 
4 57 59 109 108 
4 129 130 126 125 
4 21 39 81 82 
4 129 125 71 30 
4 11 72 125 129 
4 130 126 70 48 
4 55 57 41 13 
4 107 106 84 80 
4 53 56 40 14 
4 52 66 126 130 
4 81 85 106 107 
4 129 130 48 30 
4 104 105 101 100 
4 59 57 41 7 
4 104 100 69 8 
4 58 56 40 10 
4 11 52 130 129 
4 0 68 100 104 
4 58 109 157 155 
4 105 101 65 19 
4 60 61 46 35 
4 18 64 101 105 
4 156 157 106 107 
4 108 109 157 156 
4 104 105 19 8 
4 49 61 46 29 
4 154 155 151 150 
4 0 18 105 104 
4 62 60 35 6 
4 100 101 102 103 
4 61 63 47 46 
4 103 100 69 15 
4 62 63 47 6 
4 62 60 61 63 
4 12 68 100 103 
4 50 63 47 16 
4 63 61 49 50 
4 154 150 132 80 
4 56 133 150 154 
4 155 151 131 84 
4 103 102 20 15 
4 12 21 102 103 
4 102 101 65 20 
4 27 31 74 73 
4 73 74 32 28 
4 58 134 151 155 
4 154 155 84 80 
4 56 58 155 154 
4 24 27 73 75 
4 75 73 28 25 
4 1 24 75 76 
4 76 75 25 17 
4 1 31 74 76 
4 76 74 32 17 
4 74 73 75 76 
4 48 51 77 70 
4 70 77 50 49 
4 2 30 71 78 
4 78 71 29 16 
4 2 51 77 78 
4 78 77 50 16 
4 77 70 71 78 
4 21 64 101 102 
4 101 100 69 65 
4 64 68 100 101 
4 125 126 127 128 
4 128 125 71 29 
4 3 54 67 79 
4 79 67 55 13 
4 14 72 125 128 
4 150 151 152 153 
4 153 150 132 87 
4 61 133 150 153 
4 26 34 86 89 
4 42 44 90 87 
4 26 44 90 89 
4 89 86 87 90 
4 25 28 88 91 
4 25 44 90 91 
4 90 87 88 91 
4 128 127 49 29 
4 14 53 127 128 
4 20 65 93 83 
4 21 64 92 82 
4 127 126 70 49 
4 53 66 126 127 
4 126 125 71 70 
4 19 65 93 95 
4 18 64 92 94 
4 66 72 125 126 
4 152 153 87 86 
4 60 61 153 152 
4 27 73 97 96 
4 152 151 131 86 
4 60 134 151 152 
4 150 151 131 132 
4 28 73 97 88 
4 133 134 151 150 
4 24 27 96 98 
4 73 75 99 97 
4 24 75 99 98 
4 98 96 97 99 
4 25 75 99 91 
4 99 97 88 91 
4 110 111 107 106 
4 36 39 111 112 
4 112 111 38 37 
4 21 39 111 102 
4 102 111 38 20 
4 12 36 112 103 
4 103 112 37 15 
4 112 111 102 103 
4 4 23 110 113 
4 113 110 22 9 
4 4 36 112 113 
4 113 112 37 9 
4 113 110 111 112 
4 81 82 114 107 
4 107 114 83 80 
4 55 57 108 115 
4 115 108 56 53 
4 21 82 114 102 
4 102 114 83 20 
4 102 111 107 114 
4 41 57 108 116 
4 116 108 56 40 
4 13 41 116 117 
4 117 116 40 14 
4 13 55 115 117 
4 117 115 53 14 
4 115 108 116 117 
4 7 41 116 118 
4 118 116 40 10 
4 7 59 109 118 
4 118 109 58 10 
4 109 108 116 118 
4 3 54 120 119 
4 119 120 52 11 
4 54 67 121 120 
4 120 121 66 52 
4 67 79 122 121 
4 121 122 72 66 
4 3 79 122 119 
4 119 122 72 11 
4 119 120 121 122 
4 55 67 121 115 
4 115 121 66 53 
4 13 79 122 117 
4 117 122 72 14 
4 122 121 115 117 
4 64 92 123 101 
4 101 123 93 65 
4 82 92 123 114 
4 114 123 93 83 
4 102 101 123 114 
4 92 94 124 123 
4 123 124 95 93 
4 18 94 124 105 
4 105 124 95 19 
4 105 101 123 124 
4 137 138 139 140 
4 8 19 142 141 
4 141 142 27 31 
4 19 65 138 142 
4 142 138 73 27 
4 8 69 137 141 
4 141 137 74 31 
4 141 142 138 137 
4 37 38 136 143 
4 143 136 42 43 
4 20 38 136 139 
4 139 136 42 28 
4 15 37 143 140 
4 140 143 43 32 
4 143 136 139 140 
4 9 22 135 144 
4 144 135 34 33 
4 9 37 143 144 
4 144 143 43 33 
4 144 135 136 143 
4 80 83 145 132 
4 132 145 88 87 
4 53 56 133 127 
4 127 133 61 49 
4 20 83 145 139 
4 139 145 88 28 
4 139 136 132 145 
4 40 56 133 146 
4 146 133 61 46 
4 14 40 146 128 
4 128 146 46 29 
4 127 133 146 128 
4 10 40 146 147 
4 147 146 46 35 
4 10 58 134 147 
4 147 134 60 35 
4 134 133 146 147 
4 65 93 148 138 
4 138 148 97 73 
4 83 93 148 145 
4 145 148 97 88 
4 139 138 148 145 
4 93 95 149 148 
4 148 149 96 97 
4 19 95 149 142 
4 142 149 96 27 
4 142 138 148 149 
4 164 165 93 95 
4 66 126 161 165 
4 165 161 148 93 
4 52 130 160 164 
4 164 160 149 95 
4 164 165 161 160 
4 60 62 166 152 
4 152 166 89 86 
4 61 63 167 153 
4 153 167 90 87 
4 62 63 167 166 
4 166 167 90 89 
4 166 152 153 167 
4 49 61 153 168 
4 168 153 87 88 
4 49 50 169 168 
4 168 169 91 88 
4 50 63 167 169 
4 169 167 90 91 
4 167 153 168 169 
4 48 51 170 163 
4 163 170 98 96 
4 51 77 171 170 
4 170 171 99 98 
4 70 77 171 162 
4 162 171 99 97 
4 163 170 171 162 
4 50 77 171 169 
4 169 171 99 91 
4 49 70 162 168 
4 168 162 97 88 
4 162 171 169 168 
4 126 127 172 161 
4 161 172 145 148 
4 49 127 172 168 
4 168 172 145 88 
4 172 161 162 168 
4 53 66 165 173 
4 173 165 93 83 
4 53 127 172 173 
4 173 172 145 83 
4 173 165 161 172 
4 55 57 158 174 
4 174 158 81 82 
4 108 115 175 156 
4 156 175 114 107 
4 55 115 175 174 
4 174 175 114 82 
4 174 158 156 175 
4 53 56 154 173 
4 173 154 80 83 
4 53 115 175 173 
4 173 175 114 83 
4 175 156 154 173 
4 54 67 177 176 
4 176 177 92 94 
4 67 121 178 177 
4 177 178 123 92 
4 120 121 178 179 
4 179 178 123 124 
4 54 120 179 176 
4 176 179 124 94 
4 176 177 178 179 
4 66 121 178 165 
4 165 178 123 93 
4 52 120 179 164 
4 164 179 124 95 
4 179 178 165 164 
4 55 67 177 174 
4 174 177 92 82 
4 115 121 178 175 
4 175 178 123 114 
4 174 177 178 175 
4 175 178 165 173 
4 127 133 150 172 
4 172 150 132 145 
4 173 154 150 172 
4 172 150 153 168 

CELL_TYPES 365
9 
9 
9 
9 
9 
9 
9 
9 
9 
9 
9 
9 
9 
9 
9 
9 
9 
9 
9 
9 
9 
9 
9 
9 
9 
9 
9 
9 
9 
9 
9 
9 
9 
9 
9 
9 
9 
9 
9 
9 
9 
9 
9 
9 
9 
9 
9 
9 
9 
9 
9 
9 
9 
9 
9 
9 
9 
9 
9 
9 
9 
9 
9 
9 
9 
9 
9 
9 
9 
9 
9 
9 
9 
9 
9 
9 
9 
9 
9 
9 
9 
9 
9 
9 
9 
9 
9 
9 
9 
9 
9 
9 
9 
9 
9 
9 
9 
9 
9 
9 
9 
9 
9 
9 
9 
9 
9 
9 
9 
9 
9 
9 
9 
9 
9 
9 
9 
9 
9 
9 
9 
9 
9 
9 
9 
9 
9 
9 
9 
9 
9 
9 
9 
9 
9 
9 
9 
9 
9 
9 
9 
9 
9 
9 
9 
9 
9 
9 
9 
9 
9 
9 
9 
9 
9 
9 
9 
9 
9 
9 
9 
9 
9 
9 
9 
9 
9 
9 
9 
9 
9 
9 
9 
9 
9 
9 
9 
9 
9 
9 
9 
9 
9 
9 
9 
9 
9 
9 
9 
9 
9 
9 
9 
9 
9 
9 
9 
9 
9 
9 
9 
9 
9 
9 
9 
9 
9 
9 
9 
9 
9 
9 
9 
9 
9 
9 
9 
9 
9 
9 
9 
9 
9 
9 
9 
9 
9 
9 
9 
9 
9 
9 
9 
9 
9 
9 
9 
9 
9 
9 
9 
9 
9 
9 
9 
9 
9 
9 
9 
9 
9 
9 
9 
9 
9 
9 
9 
9 
9 
9 
9 
9 
9 
9 
9 
9 
9 
9 
9 
9 
9 
9 
9 
9 
9 
9 
9 
9 
9 
9 
9 
9 
9 
9 
9 
9 
9 
9 
9 
9 
9 
9 
9 
9 
9 
9 
9 
9 
9 
9 
9 
9 
9 
9 
9 
9 
9 
9 
9 
9 
9 
9 
9 
9 
9 
9 
9 
9 
9 
9 
9 
9 
9 
9 
9 
9 
9 
9 
9 
9 
9 
9 
9 
9 
9 
9 
9 
9 
9 
9 
9 
9 
9 
9 
9 
9 
9 
9 
9 
9 
9 
9 
9 
9 
9 
9 
9 
9 
9 
9 
9 
9 
9 
9 
9 
POINT_DATA 180
SCALARS GMDS_ID int 1
LOOKUP_TABLE default
0 1 2 3 4 5 6 7 8 9 10 11 12 13 14 15 16 17 18 19 20 21 22 23 24 25 26 27 28 29 30 31 32 33 34 35 36 37 38 39 40 41 42 43 44 45 46 47 48 49 50 51 52 53 54 55 56 57 58 59 60 61 62 63 64 65 66 67 68 69 70 71 72 73 74 75 76 77 78 79 80 81 82 83 84 85 86 87 88 89 90 91 92 93 94 95 96 97 98 99 100 101 102 103 104 105 106 107 108 109 110 111 112 113 114 115 116 117 118 119 120 121 122 123 124 125 126 127 128 129 130 131 132 133 134 135 136 137 138 139 140 141 142 143 144 145 146 147 148 149 150 151 152 153 154 155 156 157 158 159 160 161 162 163 164 165 166 167 168 169 170 171 172 173 174 175 176 177 178 179 
SCALARS geom_link_dim int 1
LOOKUP_TABLE default
1 1 1 1 1 1 1 1 2 2 2 2 2 2 3 3 2 2 2 3 0 3 3 2 2 3 2 3 0 3 2 2 3 2 3 2 2 3 0 3 3 2 0 3 3 2 3 2 3 0 3 2 3 0 2 3 0 3 3 2 3 0 2 3 3 0 0 3 2 3 0 3 3 0 3 3 2 3 2 2 0 3 3 0 3 2 3 0 0 2 3 3 3 0 2 3 3 0 2 3 3 0 0 3 2 3 3 0 0 3 3 0 3 2 0 0 3 3 2 2 3 0 3 0 3 3 0 0 3 2 3 3 0 0 3 3 0 3 0 0 3 2 3 3 2 0 3 2 0 3 0 3 3 0 0 3 0 3 3 2 3 0 0 3 3 0 2 3 0 3 2 3 0 0 3 0 2 3 0 3 
SCALARS geom_link_id int 1
LOOKUP_TABLE default
18 20 24 21 17 19 23 22 32 33 24 34 31 29 12 17 25 28 30 13 0 18 10 35 36 11 23 13 0 12 34 32 17 33 10 24 31 17 0 18 12 29 0 17 11 28 12 25 13 0 11 36 13 0 30 18 0 18 10 35 10 0 23 11 18 0 0 18 31 17 0 12 12 0 17 11 28 11 25 29 0 18 18 0 10 35 10 0 0 23 11 11 18 0 30 13 13 0 36 11 17 0 0 17 32 13 10 0 0 10 10 0 17 33 0 0 12 12 24 34 13 0 12 0 13 12 0 0 12 34 13 10 0 0 10 10 0 17 0 0 17 32 13 17 33 0 12 24 0 13 -1 10 10 -1 -1 10 -1 10 18 35 13 -1 -1 13 13 -1 23 11 -1 11 36 11 -1 -1 18 -1 30 18 -1 13 


CELL_DATA 365
SCALARS GMDS_ID int 1
LOOKUP_TABLE default
0 1 2 3 4 5 6 7 8 9 11 12 13 14 15 16 17 18 19 20 21 22 24 25 26 27 29 30 31 32 33 34 35 36 37 38 39 40 41 42 43 44 45 46 47 48 49 50 52 53 54 55 56 57 58 59 64 65 68 69 70 71 72 73 74 75 76 77 78 79 80 81 82 84 85 87 89 90 91 92 93 94 95 96 97 99 101 102 103 104 105 106 107 108 109 110 111 112 113 114 115 116 117 118 119 120 121 122 123 124 125 126 127 128 129 130 131 132 133 134 135 136 137 138 139 140 141 142 143 144 145 146 147 148 149 150 151 152 153 154 155 156 157 158 159 160 161 162 163 164 166 167 168 169 171 173 175 176 178 180 181 182 183 185 187 188 189 190 192 194 195 196 197 199 200 201 202 204 205 207 209 211 212 214 215 216 217 218 219 220 221 222 223 224 225 226 227 228 229 230 231 235 236 237 238 239 240 241 242 243 244 245 246 247 248 249 250 251 252 253 254 255 256 257 258 259 260 261 262 263 264 265 266 267 268 272 273 274 275 276 280 281 282 283 284 285 286 287 288 289 290 291 292 293 294 295 296 297 298 299 300 301 302 303 307 308 309 310 311 312 313 314 315 316 317 318 319 320 321 322 323 324 328 329 330 331 332 336 337 338 339 340 341 342 343 344 345 346 347 348 349 350 351 352 353 354 355 356 357 358 359 360 361 362 363 364 365 366 367 368 369 370 371 372 373 374 375 376 377 378 379 380 381 382 383 384 385 386 387 388 389 390 391 392 393 394 395 396 397 398 399 400 401 402 403 404 405 406 407 408 409 410 411 412 413 

SCALARS geom_link_dim int 1
LOOKUP_TABLE default
0 0 0 0 0 0 0 0 0 0 0 0 0 0 0 0 0 0 0 0 0 0 0 0 0 0 0 0 0 0 0 0 0 0 0 0 0 0 0 0 0 0 0 0 0 0 0 0 0 0 0 0 0 0 0 0 0 0 0 0 0 0 0 0 0 0 0 0 0 0 0 0 0 0 0 0 0 0 0 0 0 0 0 0 0 0 0 0 0 0 0 0 0 0 0 0 0 0 0 0 0 0 0 0 0 0 0 0 0 0 0 0 0 0 0 0 0 0 0 0 0 0 0 0 0 0 0 0 0 0 0 0 0 0 0 0 0 0 0 0 0 0 0 0 0 0 0 0 0 0 0 0 0 0 0 0 0 0 0 0 0 0 0 0 0 0 0 0 0 0 0 0 0 0 0 0 0 0 0 0 0 0 0 0 0 0 0 0 0 0 0 0 0 0 0 0 0 0 0 0 0 0 0 0 0 0 0 0 0 0 0 0 0 0 0 0 0 0 0 0 0 0 0 0 0 0 0 0 0 0 0 0 0 0 0 0 0 0 0 0 0 0 0 0 0 0 0 0 0 0 0 0 0 0 0 0 0 0 0 0 0 0 0 0 0 0 0 0 0 0 0 0 0 0 0 0 0 0 0 0 0 0 0 0 0 0 0 0 0 0 0 0 0 0 0 0 0 0 0 0 0 0 0 0 0 0 0 0 0 0 0 0 0 0 0 0 0 0 0 0 0 0 0 0 0 0 0 0 0 0 0 0 0 0 0 0 0 0 0 0 0 0 0 0 0 0 0 0 0 0 0 0 0 0 0 0 0 0 0 0 0 0 0 0 0 

SCALARS geom_link_id int 1
LOOKUP_TABLE default
0 0 -1 -1 0 -1 0 0 -1 -1 -1 0 0 0 0 -1 -1 0 -1 0 -1 0 0 0 0 0 -1 0 0 0 -1 0 0 0 0 0 0 0 0 0 0 0 0 0 0 0 -1 0 0 0 0 0 -1 0 0 0 0 0 -1 -1 0 0 -1 -1 -1 0 0 0 0 0 0 0 0 -1 -1 0 0 0 0 0 0 0 0 0 0 0 0 0 0 0 0 0 0 0 0 0 0 0 -1 0 0 0 -1 -1 0 0 -1 0 0 0 0 0 0 0 0 0 0 -1 -1 -1 0 0 0 0 0 -1 -1 -1 0 0 0 0 0 0 0 0 0 0 0 0 0 0 0 0 0 0 0 0 0 0 -1 -1 -1 0 0 0 0 0 0 0 0 0 0 0 0 0 0 0 0 0 -1 -1 0 -1 -1 -1 0 -1 0 0 0 0 0 0 0 0 0 0 0 0 0 0 0 0 0 0 0 0 0 0 0 0 0 0 0 0 0 0 0 0 0 0 0 0 0 0 0 0 0 0 0 0 0 0 0 0 0 0 0 0 0 0 0 0 0 0 0 0 0 0 0 0 0 0 0 0 0 0 0 0 0 0 0 0 0 0 0 0 0 0 0 0 0 0 0 0 0 0 0 0 0 0 0 0 0 0 0 0 0 0 0 0 0 0 0 0 0 -1 -1 -1 -1 -1 -1 -1 -1 -1 -1 -1 -1 -1 -1 -1 -1 -1 -1 -1 -1 -1 -1 -1 -1 -1 -1 -1 -1 -1 -1 -1 -1 -1 -1 -1 -1 -1 -1 -1 -1 -1 -1 -1 -1 -1 -1 -1 -1 -1 -1 -1 -1 -1 -1 -1 -1 -1 -1 -1 -1 -1 -1 -1 -1 -1 -1 -1 -1 -1 -1 -1 -1 -1 -1 -1 -1 -1 -1 

