# vtk DataFile Version 3.0
Generated by GMDS VTK Writer

ASCII
DATASET UNSTRUCTURED_GRID
POINTS 125 float
-5 -5 -5
-5 5 -5
5 5 -5
5 -5 -5
-5 -5 5
-5 5 5
5 5 5
5 -5 5
-5 -1 -5
-5 -1 5
5 -1 5
5 -1 -5
-5 -5 -1
5 -5 -1
5 -1 -1
-5 -1 -1
5 5 -1
-5 5 -1
-1 -5 -5
-1 -1 -5
-1 -1 -1
-1 -5 -1
-1 -1 5
-1 -5 5
-1 5 -5
-1 5 -1
-1 5 5
-5 -5 1
-5 -1 1
-1 -1 1
-1 -5 1
5 -1 1
5 -5 1
-5 5 1
-1 5 1
5 5 1
5 0.999999999999999 1
-1 0.999999999999999 1
-1 1 -1
5 0.999999999999999 -1
-1 0.999999999999999 -5
5 0.999999999999999 -5
5 0.999999999999999 5
-1 0.999999999999999 5
-5 1 -5
-5 1 -1
-5 0.999999999999999 1
-5 0.999999999999999 5
1 -1 1
1 -5 1
1 -5 -1
1 -1 -1
1 -1 5
1 -5 5
1 0.999999999999999 -5
1 1 -1
1 5 -1
1 5 -5
1 -1 -5
0.999999999999999 -5 -5
1 1 1
1 5 1
1 0.999999999999999 5
1 5 5
-5 3 -5
-5 3 -1
-1 3 -1
-1 3 -5
-5 3 5
-1 3 5
-1 3 1
-5 3 1
1 3 -1
1 3 -5
5 3 -1
5 3 -5
1 3 1
5 3 1
1 3 5
5 3 5
3 -1 -5
3 -1 -1
3 1 -1
3 0.999999999999999 -5
3 -5 -5
3 -5 -1
3 -5 5
3 -1 5
3 -1 1
3 -5 1
3 0.999999999999999 1
3 0.999999999999999 5
3 5 -5
3 5 -1
3 3 -1
3 3 -5
3 5 1
3 3 1
3 5 5
3 3 5
-5 -5 3
-5 -1 3
-1 -1 3
-1 -5 3
-5 3 3
-1 3 3
-1 0.999999999999999 3
-5 0.999999999999999 3
3 -1 3
3 -5 3
1 -5 3
1 -1 3
-5 5 3
-1 5 3
5 -1 3
5 -5 3
1 0.999999999999999 3
1 5 3
1 3 3
5 0.999999999999999 3
3 0.999999999999999 3
5 5 3
5 3 3
3 3 3
3 5 3

CELLS 240 1200
4 11 14 39 41 
4 3 11 14 13 
4 0 12 21 18 
4 25 56 72 66 
4 71 70 66 65 
4 12 15 20 21 
4 65 71 46 45 
4 17 33 71 65 
4 27 28 29 30 
4 8 15 20 19 
4 66 70 37 38 
4 27 30 21 12 
4 0 8 19 18 
4 29 30 21 20 
4 0 8 15 12 
4 28 29 20 15 
4 38 40 54 55 
4 19 20 38 40 
4 27 28 15 12 
4 25 34 70 66 
4 18 19 20 21 
4 14 31 36 39 
4 4 9 22 23 
4 71 70 37 46 
4 88 89 49 48 
4 113 105 69 26 
4 34 70 105 113 
4 1 17 25 24 
4 33 34 70 71 
4 112 113 26 5 
4 22 23 53 52 
4 48 49 50 51 
4 20 29 37 38 
4 32 31 14 13 
4 68 69 43 47 
4 5 26 69 68 
4 64 65 66 67 
4 33 34 113 112 
4 20 29 48 51 
4 108 109 110 111 
4 20 21 50 51 
4 33 34 25 17 
4 111 108 87 52 
4 21 30 49 50 
4 48 88 108 111 
4 64 67 40 44 
4 1 24 67 64 
4 29 30 49 48 
4 31 32 89 88 
4 67 66 38 40 
4 24 25 66 67 
4 65 66 38 45 
4 17 25 66 65 
4 64 65 45 44 
4 1 17 65 64 
4 8 15 45 44 
4 86 87 52 53 
4 15 20 38 45 
4 7 10 87 86 
4 8 19 40 44 
4 84 80 81 85 
4 44 45 38 40 
4 28 29 37 46 
4 84 85 50 59 
4 15 28 46 45 
4 3 13 85 84 
4 46 37 38 45 
4 9 22 43 47 
4 85 81 51 50 
4 13 14 81 85 
4 111 110 53 52 
4 84 80 58 59 
4 3 11 80 84 
4 24 25 56 57 
4 48 49 110 111 
4 80 81 82 83 
4 80 83 54 58 
4 11 41 83 80 
4 19 20 51 58 
4 110 109 86 53 
4 20 38 55 51 
4 49 89 109 110 
4 19 40 54 58 
4 108 109 86 87 
4 58 51 55 54 
4 18 19 58 59 
4 88 89 109 108 
4 18 21 50 59 
4 104 105 106 107 
4 59 58 51 50 
4 37 38 55 60 
4 107 104 68 47 
4 82 83 54 55 
4 39 41 83 82 
4 25 34 61 56 
4 46 71 104 107 
4 81 82 55 51 
4 29 37 60 48 
4 106 107 47 43 
4 51 48 60 55 
4 37 46 107 106 
4 22 43 62 52 
4 106 105 69 43 
4 37 70 105 106 
4 14 39 82 81 
4 80 81 51 58 
4 11 14 81 80 
4 66 72 55 38 
4 56 57 73 72 
4 72 73 54 55 
4 24 57 73 67 
4 67 73 54 40 
4 67 66 72 73 
4 105 104 68 69 
4 70 71 104 105 
4 2 16 74 75 
4 75 74 39 41 
4 100 101 102 103 
4 100 103 23 4 
4 27 30 103 100 
4 34 61 76 70 
4 70 76 60 37 
4 56 61 76 72 
4 72 76 60 55 
4 66 70 76 72 
4 102 103 23 22 
4 29 30 103 102 
4 16 35 77 74 
4 74 77 36 39 
4 101 102 22 9 
4 26 63 78 69 
4 69 78 62 43 
4 28 29 102 101 
4 100 101 9 4 
4 27 28 101 100 
4 14 31 88 81 
4 81 88 48 51 
4 31 36 90 88 
4 88 90 60 48 
4 36 39 82 90 
4 90 82 55 60 
4 81 88 90 82 
4 13 32 89 85 
4 85 89 49 50 
4 89 88 81 85 
4 10 42 91 87 
4 87 91 62 52 
4 2 16 93 92 
4 92 93 56 57 
4 16 74 94 93 
4 93 94 72 56 
4 74 75 95 94 
4 94 95 73 72 
4 2 75 95 92 
4 92 95 73 57 
4 92 93 94 95 
4 39 74 94 82 
4 82 94 72 55 
4 41 75 95 83 
4 83 95 73 54 
4 95 94 82 83 
4 16 35 96 93 
4 93 96 61 56 
4 35 77 97 96 
4 96 97 76 61 
4 74 77 97 94 
4 94 97 76 72 
4 93 96 97 94 
4 36 77 97 90 
4 90 97 76 60 
4 94 97 90 82 
4 6 79 99 98 
4 98 99 78 63 
4 42 79 99 91 
4 91 99 78 62 
4 33 71 104 112 
4 112 104 68 5 
4 112 113 105 104 
4 30 49 110 103 
4 103 110 53 23 
4 29 48 111 102 
4 102 111 52 22 
4 102 103 110 111 
4 31 32 115 114 
4 114 115 7 10 
4 32 89 109 115 
4 115 109 86 7 
4 31 88 108 114 
4 114 108 87 10 
4 114 115 109 108 
4 29 37 106 102 
4 102 106 43 22 
4 28 46 107 101 
4 101 107 47 9 
4 101 102 106 107 
4 37 60 116 106 
4 106 116 62 43 
4 48 60 116 111 
4 111 116 62 52 
4 102 106 116 111 
4 34 61 117 113 
4 113 117 63 26 
4 61 76 118 117 
4 117 118 78 63 
4 70 76 118 105 
4 105 118 78 69 
4 113 117 118 105 
4 60 76 118 116 
4 116 118 78 62 
4 105 118 116 106 
4 31 36 119 114 
4 114 119 42 10 
4 36 90 120 119 
4 119 120 91 42 
4 88 90 120 108 
4 108 120 91 87 
4 114 119 120 108 
4 60 90 120 116 
4 116 120 91 62 
4 108 120 116 111 
4 35 77 122 121 
4 121 122 79 6 
4 77 97 123 122 
4 122 123 99 79 
4 96 97 123 124 
4 124 123 99 98 
4 35 96 124 121 
4 121 124 98 6 
4 121 122 123 124 
4 76 97 123 118 
4 118 123 99 78 
4 61 96 124 117 
4 117 124 98 63 
4 124 123 118 117 
4 36 77 122 119 
4 119 122 79 42 
4 90 97 123 120 
4 120 123 99 91 
4 119 122 123 120 
4 120 123 118 116 

CELL_TYPES 240
9 
9 
9 
9 
9 
9 
9 
9 
9 
9 
9 
9 
9 
9 
9 
9 
9 
9 
9 
9 
9 
9 
9 
9 
9 
9 
9 
9 
9 
9 
9 
9 
9 
9 
9 
9 
9 
9 
9 
9 
9 
9 
9 
9 
9 
9 
9 
9 
9 
9 
9 
9 
9 
9 
9 
9 
9 
9 
9 
9 
9 
9 
9 
9 
9 
9 
9 
9 
9 
9 
9 
9 
9 
9 
9 
9 
9 
9 
9 
9 
9 
9 
9 
9 
9 
9 
9 
9 
9 
9 
9 
9 
9 
9 
9 
9 
9 
9 
9 
9 
9 
9 
9 
9 
9 
9 
9 
9 
9 
9 
9 
9 
9 
9 
9 
9 
9 
9 
9 
9 
9 
9 
9 
9 
9 
9 
9 
9 
9 
9 
9 
9 
9 
9 
9 
9 
9 
9 
9 
9 
9 
9 
9 
9 
9 
9 
9 
9 
9 
9 
9 
9 
9 
9 
9 
9 
9 
9 
9 
9 
9 
9 
9 
9 
9 
9 
9 
9 
9 
9 
9 
9 
9 
9 
9 
9 
9 
9 
9 
9 
9 
9 
9 
9 
9 
9 
9 
9 
9 
9 
9 
9 
9 
9 
9 
9 
9 
9 
9 
9 
9 
9 
9 
9 
9 
9 
9 
9 
9 
9 
9 
9 
9 
9 
9 
9 
9 
9 
9 
9 
9 
9 
9 
9 
9 
9 
9 
9 
9 
9 
9 
9 
9 
9 
9 
9 
9 
9 
9 
9 
POINT_DATA 125
SCALARS GMDS_ID int 1
LOOKUP_TABLE default
0 1 2 3 4 5 6 7 8 9 10 11 12 13 14 15 16 17 18 19 20 21 22 23 24 25 26 27 28 29 30 31 32 33 34 35 36 37 38 39 40 41 42 43 44 45 46 47 48 49 50 51 52 53 54 55 56 57 58 59 60 61 62 63 64 65 66 67 68 69 70 71 72 73 74 75 76 77 78 79 80 81 82 83 84 85 86 87 88 89 90 91 92 93 94 95 96 97 98 99 100 101 102 103 104 105 106 107 108 109 110 111 112 113 114 115 116 117 118 119 120 121 122 123 124 
SCALARS geom_link_dim int 1
LOOKUP_TABLE default
1 1 1 1 1 1 1 1 2 2 2 2 2 2 3 3 2 2 2 3 0 3 3 2 2 3 2 2 3 0 3 3 2 2 3 2 3 0 0 3 3 2 2 3 2 3 3 2 0 3 3 0 3 2 3 0 3 2 3 2 0 3 3 2 2 3 0 3 2 3 0 3 0 3 3 2 0 3 3 2 3 0 0 3 2 3 2 3 0 3 0 3 2 3 0 3 3 0 2 3 2 3 0 3 3 0 0 3 0 3 3 0 2 3 3 2 0 3 0 3 0 2 3 0 3 
SCALARS geom_link_id int 1
LOOKUP_TABLE default
18 20 24 21 17 19 23 22 32 33 24 34 31 29 12 17 25 28 30 13 0 18 10 35 36 11 23 31 17 0 18 12 29 28 11 25 12 0 0 12 13 34 24 10 32 17 17 33 0 18 18 0 10 35 13 0 11 36 13 30 0 11 10 23 32 17 0 13 33 10 0 17 0 13 12 34 0 12 10 24 13 0 0 13 30 18 35 10 0 18 0 10 36 11 0 13 11 0 23 10 31 17 -1 18 17 -1 -1 17 -1 18 18 -1 28 11 12 29 -1 11 -1 12 -1 25 12 -1 11 


CELL_DATA 240
SCALARS GMDS_ID int 1
LOOKUP_TABLE default
0 1 2 4 5 6 7 8 9 10 11 12 14 15 17 19 20 21 23 25 28 30 31 34 35 36 38 40 41 42 43 44 45 48 49 50 51 52 53 54 55 57 58 59 60 61 62 63 64 65 66 67 68 69 74 75 76 77 78 79 80 81 82 83 84 85 86 87 88 90 92 93 94 95 96 97 98 99 100 101 102 103 104 105 106 107 108 109 110 111 112 113 114 115 116 117 118 119 120 121 123 124 125 128 129 130 131 132 133 134 135 136 137 138 139 140 141 142 143 144 145 146 147 148 149 150 151 152 153 154 157 158 162 163 164 166 167 168 169 170 171 172 173 174 175 178 179 181 182 183 184 185 186 187 188 189 190 191 192 193 194 195 196 197 198 199 200 201 202 203 204 209 210 212 213 215 216 217 218 219 220 221 222 223 224 225 226 227 228 229 230 231 232 233 234 235 236 237 238 239 240 241 242 243 244 245 246 247 248 249 250 251 252 253 254 255 256 257 258 259 260 261 262 263 264 265 266 267 268 269 270 271 272 273 274 275 276 277 278 279 

SCALARS geom_link_dim int 1
LOOKUP_TABLE default
0 0 0 0 0 0 0 0 0 0 0 0 0 0 0 0 0 0 0 0 0 0 0 0 0 0 0 0 0 0 0 0 0 0 0 0 0 0 0 0 0 0 0 0 0 0 0 0 0 0 0 0 0 0 0 0 0 0 0 0 0 0 0 0 0 0 0 0 0 0 0 0 0 0 0 0 0 0 0 0 0 0 0 0 0 0 0 0 0 0 0 0 0 0 0 0 0 0 0 0 0 0 0 0 0 0 0 0 0 0 0 0 0 0 0 0 0 0 0 0 0 0 0 0 0 0 0 0 0 0 0 0 0 0 0 0 0 0 0 0 0 0 0 0 0 0 0 0 0 0 0 0 0 0 0 0 0 0 0 0 0 0 0 0 0 0 0 0 0 0 0 0 0 0 0 0 0 0 0 0 0 0 0 0 0 0 0 0 0 0 0 0 0 0 0 0 0 0 0 0 0 0 0 0 0 0 0 0 0 0 0 0 0 0 0 0 0 0 0 0 0 0 0 0 0 0 0 0 0 0 0 0 0 0 0 0 0 0 0 0 

SCALARS geom_link_id int 1
LOOKUP_TABLE default
0 0 0 0 0 0 0 0 0 0 0 0 0 0 0 0 0 0 0 0 0 0 0 0 0 -1 -1 0 0 -1 0 0 0 0 0 0 0 -1 0 -1 0 0 -1 0 -1 0 0 0 0 0 0 0 0 0 0 0 0 0 0 0 0 0 0 0 0 0 0 0 0 0 -1 0 0 0 -1 0 0 0 0 -1 0 -1 0 -1 0 0 -1 0 -1 0 0 -1 0 0 0 -1 0 0 -1 0 -1 0 -1 -1 0 0 0 0 0 0 0 0 0 -1 -1 0 0 -1 -1 -1 0 0 0 0 0 -1 -1 0 0 -1 0 0 -1 -1 -1 0 0 0 0 0 0 0 0 0 0 0 0 0 0 0 0 0 0 0 0 0 0 0 0 0 0 0 0 0 0 0 0 0 0 0 0 0 0 0 0 -1 -1 -1 -1 -1 -1 -1 -1 -1 -1 -1 -1 -1 -1 -1 -1 -1 -1 -1 -1 -1 -1 -1 -1 -1 -1 -1 -1 -1 -1 -1 -1 -1 -1 -1 -1 -1 -1 -1 -1 -1 -1 -1 -1 -1 -1 -1 -1 -1 -1 -1 -1 -1 -1 -1 -1 -1 -1 -1 -1 -1 -1 -1 -1 -1 

