# vtk DataFile Version 3.0
Generated by GMDS VTK Writer

ASCII
DATASET UNSTRUCTURED_GRID
POINTS 48 float
-5 -5 -5
-5 5 -5
5 5 -5
5 -5 -5
-5 -5 5
-5 5 5
5 5 5
5 -5 5
-5 -1 -5
-5 -1 5
5 -1 5
5 -1 -5
-5 -5 -1
5 -5 -1
5 -1 -1
-5 -1 -1
5 5 -1
-5 5 -1
-1 -5 -5
-1 -1 -5
-1 -1 -1
-1 -5 -1
-1 -1 5
-1 -5 5
-1 5 -5
-1 5 -1
-1 5 5
-5 -5 1
-5 -1 1
-1 -1 1
-1 -5 1
5 -1 1
5 -5 1
-5 5 1
-1 5 1
5 5 1
5 0.999999999999999 1
-1 0.999999999999999 1
-1 1 -1
5 0.999999999999999 -1
-1 0.999999999999999 -5
5 0.999999999999999 -5
5 0.999999999999999 5
-1 0.999999999999999 5
-5 1 -5
-5 1 -1
-5 0.999999999999999 1
-5 0.999999999999999 5

CELLS 75 375
4 11 14 39 41 
4 3 11 14 13 
4 0 12 21 18 
4 7 10 31 32 
4 21 20 14 13 
4 31 29 20 14 
4 12 15 20 21 
4 19 20 14 11 
4 10 22 29 31 
4 27 28 29 30 
4 8 15 20 19 
4 18 19 11 3 
4 27 30 21 12 
4 4 23 30 27 
4 0 8 19 18 
4 29 30 21 20 
4 22 23 30 29 
4 0 8 15 12 
4 40 38 25 24 
4 28 29 20 15 
4 19 20 38 40 
4 9 22 29 28 
4 27 28 15 12 
4 36 37 38 39 
4 4 9 28 27 
4 18 21 13 3 
4 18 19 20 21 
4 39 36 35 16 
4 14 31 36 39 
4 4 9 22 23 
4 23 22 10 7 
4 39 38 25 16 
4 14 20 38 39 
4 38 37 34 25 
4 1 17 25 24 
4 24 25 16 2 
4 20 29 37 38 
4 37 36 35 34 
4 29 31 36 37 
4 32 31 14 13 
4 7 23 30 32 
4 32 30 21 13 
4 30 29 31 32 
4 5 26 34 33 
4 33 34 25 17 
4 6 26 34 35 
4 35 34 25 16 
4 41 39 16 2 
4 11 19 40 41 
4 41 40 24 2 
4 40 38 39 41 
4 10 22 43 42 
4 42 43 26 6 
4 22 29 37 43 
4 43 37 34 26 
4 10 31 36 42 
4 42 36 35 6 
4 42 43 37 36 
4 8 15 45 44 
4 44 45 17 1 
4 15 20 38 45 
4 45 38 25 17 
4 8 19 40 44 
4 44 40 24 1 
4 44 45 38 40 
4 28 29 37 46 
4 46 37 34 33 
4 15 28 46 45 
4 45 46 33 17 
4 46 37 38 45 
4 9 22 43 47 
4 47 43 26 5 
4 9 28 46 47 
4 47 46 33 5 
4 47 43 37 46 

CELL_TYPES 75
9 
9 
9 
9 
9 
9 
9 
9 
9 
9 
9 
9 
9 
9 
9 
9 
9 
9 
9 
9 
9 
9 
9 
9 
9 
9 
9 
9 
9 
9 
9 
9 
9 
9 
9 
9 
9 
9 
9 
9 
9 
9 
9 
9 
9 
9 
9 
9 
9 
9 
9 
9 
9 
9 
9 
9 
9 
9 
9 
9 
9 
9 
9 
9 
9 
9 
9 
9 
9 
9 
9 
9 
9 
9 
9 
POINT_DATA 48
SCALARS GMDS_ID int 1
LOOKUP_TABLE default
0 1 2 3 4 5 6 7 8 9 10 11 12 13 14 15 16 17 18 19 20 21 22 23 24 25 26 27 28 29 30 31 32 33 34 35 36 37 38 39 40 41 42 43 44 45 46 47 
SCALARS geom_link_dim_0 int 1
LOOKUP_TABLE default
0 0 0 0 0 0 0 0 0 0 0 0 0 0 0 0 0 0 0 0 0 0 0 0 0 0 0 0 0 0 0 0 0 0 0 0 0 0 0 0 0 0 0 0 0 0 0 0 
SCALARS geom_link_id_0 int 1
LOOKUP_TABLE default
0 0 0 0 0 0 0 0 0 0 0 0 0 0 0 0 0 0 0 0 0 0 0 0 0 0 0 0 0 0 0 0 0 0 0 0 0 0 0 0 0 0 0 0 0 0 0 0 


CELL_DATA 75
SCALARS GMDS_ID int 1
LOOKUP_TABLE default
0 1 2 3 4 5 6 7 8 9 10 11 12 13 14 15 16 17 18 19 21 22 23 25 26 27 28 29 30 31 32 33 34 35 40 41 45 46 47 48 49 50 51 56 57 61 62 64 65 66 67 68 69 70 71 72 73 74 75 76 77 78 79 80 81 82 83 84 85 86 87 88 89 90 91 

SCALARS geom_link_dim_0 int 1
LOOKUP_TABLE default
0 0 0 0 0 0 0 0 0 0 0 0 0 0 0 0 0 0 0 0 0 0 0 0 0 0 0 0 0 0 0 0 0 0 0 0 0 0 0 0 0 0 0 0 0 0 0 0 0 0 0 0 0 0 0 0 0 0 0 0 0 0 0 0 0 0 0 0 0 0 0 0 0 0 0 

SCALARS geom_link_id_0 int 1
LOOKUP_TABLE default
0 0 0 0 0 0 0 0 0 0 0 0 0 0 0 0 0 0 0 0 0 0 0 0 0 0 0 0 0 0 0 0 0 0 0 0 0 0 0 0 0 0 0 0 0 0 0 0 0 0 0 0 0 0 0 0 0 0 0 0 0 0 0 0 0 0 0 0 0 0 0 0 0 0 0 

