# vtk DataFile Version 3.0
Generated by GMDS VTK Writer

ASCII
DATASET UNSTRUCTURED_GRID
POINTS 100 float
-5 -5 -5
-5 5 -5
5 5 -5
5 -5 -5
-5 -5 5
-5 5 5
5 5 5
5 -5 5
-5 1 -5
-5 1 5
5 1 5
5 1 -5
-5 -5 1
5 -5 1
5 1 1
-5 1 1
5 5 1
-5 5 1
-1 -5 -5
-1 1 -5
-1 1 1
-1 -5 1
-1 1 5
-1 -5 5
-1 5 -5
-1 5 1
-1 5 5
-1 4 -5
-1 4 1
5 4 1
5 4 -5
-5 4 -5
-5 4 1
-5 4 5
-1 4 5
5 4 5
-5 -5 4
-5 1 4
-1 1 4
-1 -5 4
5 1 4
5 -5 4
-1 4 4
-5 4 4
-1 5 4
-5 5 4
5 4 4
5 5 4
4 4 -5
4 4 1
4 5 1
4 5 -5
4 1 -5
4 1 1
4 -5 -5
4 -5 1
4 1 4
4 -5 4
4 1 5
4 -5 5
4 4 5
4 4 4
4 5 5
4 5 4
-1 -5 -1
-1 1 -1
4 1 -1
4 -5 -1
-5 -5 -1
-5 1 -1
4 4 -1
5 4 -1
5 1 -1
-1 4 -1
-5 4 -1
-1 5 -1
-5 5 -0.999999999999999
4 5 -1
5 5 -1
5 -5 -1
1 1 4
1 -5 4
1 -5 1
1 1 1
1 1 5
1 -5 5
1 4 5
1 4 4
1 4 1
1 5 5
1 5 4
1 5 1
1 -5 -1
1 1 -1
0.999999999999999 -5 -5
1 1 -5
1 4 -5
1 4 -1
1 5 -5
1 5 -1

CELLS 184 920
4 28 42 87 88 
4 84 86 87 80 
4 15 20 28 32 
4 72 66 53 14 
4 80 87 61 56 
4 12 15 20 21 
4 11 52 66 72 
4 38 42 87 80 
4 72 71 29 14 
4 86 87 61 60 
4 11 30 71 72 
4 71 70 49 29 
4 30 48 70 71 
4 0 8 19 18 
4 34 42 87 86 
4 84 86 60 58 
4 22 34 86 84 
4 84 85 81 80 
4 70 66 53 49 
4 7 10 40 41 
4 48 52 66 70 
4 68 69 65 64 
4 84 80 56 58 
4 68 64 21 12 
4 36 37 38 39 
4 22 38 80 84 
4 0 18 64 68 
4 85 81 57 59 
4 52 48 30 11 
4 4 9 22 23 
4 69 65 20 15 
4 53 49 29 14 
4 23 39 81 85 
4 36 39 21 12 
4 4 23 39 36 
4 38 39 21 20 
4 22 23 39 38 
4 84 85 59 58 
4 8 19 65 69 
4 37 38 20 15 
4 9 22 38 37 
4 36 37 15 12 
4 22 23 85 84 
4 80 81 82 83 
4 4 9 37 36 
4 32 28 25 17 
4 8 19 27 31 
4 31 27 24 1 
4 83 80 56 53 
4 51 48 30 2 
4 20 38 80 83 
4 83 82 55 53 
4 9 22 34 33 
4 33 34 26 5 
4 50 49 29 16 
4 20 21 82 83 
4 68 69 15 12 
4 0 8 69 68 
4 82 81 57 55 
4 41 40 14 13 
4 22 34 42 38 
4 38 42 28 20 
4 33 34 42 43 
4 43 42 28 32 
4 9 33 43 37 
4 37 43 32 15 
4 37 38 42 43 
4 26 34 42 44 
4 44 42 28 25 
4 5 26 44 45 
4 45 44 25 17 
4 5 33 43 45 
4 45 43 32 17 
4 43 42 44 45 
4 66 67 55 53 
4 52 54 67 66 
4 10 35 46 40 
4 40 46 29 14 
4 64 65 20 21 
4 6 35 46 47 
4 47 46 29 16 
4 18 19 65 64 
4 54 52 11 3 
4 53 55 13 14 
4 21 39 81 82 
4 80 81 57 56 
4 38 39 81 80 
4 56 57 41 40 
4 55 57 41 13 
4 53 56 40 14 
4 56 57 55 53 
4 58 59 7 10 
4 59 57 41 7 
4 58 56 40 10 
4 58 59 57 56 
4 58 60 35 10 
4 60 61 46 35 
4 56 61 46 40 
4 58 60 61 56 
4 49 61 46 29 
4 56 61 49 53 
4 62 60 35 6 
4 61 63 47 46 
4 62 63 47 6 
4 62 60 61 63 
4 50 63 47 16 
4 63 61 49 50 
4 66 70 71 72 
4 19 27 73 65 
4 65 73 28 20 
4 27 31 74 73 
4 73 74 32 28 
4 8 31 74 69 
4 69 74 32 15 
4 69 65 73 74 
4 24 27 73 75 
4 75 73 28 25 
4 1 24 75 76 
4 76 75 25 17 
4 1 31 74 76 
4 76 74 32 17 
4 74 73 75 76 
4 48 51 77 70 
4 70 77 50 49 
4 2 30 71 78 
4 78 71 29 16 
4 2 51 77 78 
4 78 77 50 16 
4 77 70 71 78 
4 3 11 72 79 
4 79 72 14 13 
4 3 54 67 79 
4 79 67 55 13 
4 67 66 72 79 
4 88 87 61 49 
4 20 28 88 83 
4 83 88 49 53 
4 80 87 88 83 
4 26 34 86 89 
4 89 86 60 62 
4 42 44 90 87 
4 87 90 63 61 
4 26 44 90 89 
4 89 90 63 62 
4 89 86 87 90 
4 25 28 88 91 
4 91 88 49 50 
4 25 44 90 91 
4 91 90 63 50 
4 90 87 88 91 
4 64 65 93 92 
4 92 93 66 67 
4 20 65 93 83 
4 83 93 66 53 
4 21 64 92 82 
4 82 92 67 55 
4 92 93 83 82 
4 18 19 95 94 
4 94 95 52 54 
4 19 65 93 95 
4 95 93 66 52 
4 18 64 92 94 
4 94 92 67 54 
4 94 95 93 92 
4 19 27 96 95 
4 95 96 48 52 
4 27 73 97 96 
4 96 97 70 48 
4 65 73 97 93 
4 93 97 70 66 
4 95 96 97 93 
4 28 73 97 88 
4 88 97 70 49 
4 93 97 88 83 
4 24 27 96 98 
4 98 96 48 51 
4 73 75 99 97 
4 97 99 77 70 
4 24 75 99 98 
4 98 99 77 51 
4 98 96 97 99 
4 25 75 99 91 
4 91 99 77 50 
4 99 97 88 91 

CELL_TYPES 184
9 
9 
9 
9 
9 
9 
9 
9 
9 
9 
9 
9 
9 
9 
9 
9 
9 
9 
9 
9 
9 
9 
9 
9 
9 
9 
9 
9 
9 
9 
9 
9 
9 
9 
9 
9 
9 
9 
9 
9 
9 
9 
9 
9 
9 
9 
9 
9 
9 
9 
9 
9 
9 
9 
9 
9 
9 
9 
9 
9 
9 
9 
9 
9 
9 
9 
9 
9 
9 
9 
9 
9 
9 
9 
9 
9 
9 
9 
9 
9 
9 
9 
9 
9 
9 
9 
9 
9 
9 
9 
9 
9 
9 
9 
9 
9 
9 
9 
9 
9 
9 
9 
9 
9 
9 
9 
9 
9 
9 
9 
9 
9 
9 
9 
9 
9 
9 
9 
9 
9 
9 
9 
9 
9 
9 
9 
9 
9 
9 
9 
9 
9 
9 
9 
9 
9 
9 
9 
9 
9 
9 
9 
9 
9 
9 
9 
9 
9 
9 
9 
9 
9 
9 
9 
9 
9 
9 
9 
9 
9 
9 
9 
9 
9 
9 
9 
9 
9 
9 
9 
9 
9 
9 
9 
9 
9 
9 
9 
9 
9 
9 
9 
9 
9 
POINT_DATA 100
SCALARS GMDS_ID int 1
LOOKUP_TABLE default
0 1 2 3 4 5 6 7 8 9 10 11 12 13 14 15 16 17 18 19 20 21 22 23 24 25 26 27 28 29 30 31 32 33 34 35 36 37 38 39 40 41 42 43 44 45 46 47 48 49 50 51 52 53 54 55 56 57 58 59 60 61 62 63 64 65 66 67 68 69 70 71 72 73 74 75 76 77 78 79 80 81 82 83 84 85 86 87 88 89 90 91 92 93 94 95 96 97 98 99 
SCALARS geom_link_dim int 1
LOOKUP_TABLE default
1 1 1 1 1 1 1 1 2 2 2 2 2 2 3 3 2 2 2 3 0 3 3 2 2 3 2 3 0 3 2 2 3 2 3 2 2 3 0 3 3 2 0 3 3 2 3 2 3 0 3 2 3 0 2 3 0 3 3 2 3 0 2 3 3 0 0 3 2 3 0 3 3 0 3 3 2 3 2 2 0 3 3 0 3 2 3 0 0 2 3 3 3 0 2 3 3 0 2 3 
SCALARS geom_link_id int 1
LOOKUP_TABLE default
18 20 24 21 17 19 23 22 32 33 24 34 31 29 12 17 25 28 30 13 0 18 10 35 36 11 23 13 0 12 34 32 17 33 10 24 31 17 0 18 12 29 0 17 11 28 12 25 13 0 11 36 13 0 30 18 0 18 10 35 10 0 23 11 18 0 0 18 31 17 0 12 12 0 17 11 28 11 25 29 -1 18 18 -1 10 35 10 -1 -1 23 11 11 18 -1 30 13 13 -1 36 11 


CELL_DATA 184
SCALARS GMDS_ID int 1
LOOKUP_TABLE default
1 2 3 4 5 6 7 8 9 10 11 12 13 14 15 16 17 18 19 20 21 22 23 24 25 26 27 28 29 31 32 33 35 36 37 38 39 40 41 42 43 44 45 46 47 48 49 50 51 52 54 55 56 57 58 60 61 62 63 64 68 69 70 71 72 73 74 75 76 77 78 79 80 81 82 83 84 85 88 89 90 91 92 94 95 96 97 99 101 103 104 106 108 110 111 113 115 117 118 120 121 123 125 127 128 130 131 132 133 134 138 139 140 141 142 143 144 145 146 147 148 149 150 151 152 153 154 155 156 160 161 162 163 164 165 166 167 168 169 170 171 172 173 174 175 176 177 178 179 180 181 182 183 184 185 186 187 188 189 190 191 192 193 194 195 196 197 198 199 200 201 202 203 204 205 206 207 208 209 210 211 212 213 214 

SCALARS geom_link_dim int 1
LOOKUP_TABLE default
0 0 0 0 0 0 0 0 0 0 0 0 0 0 0 0 0 0 0 0 0 0 0 0 0 0 0 0 0 0 0 0 0 0 0 0 0 0 0 0 0 0 0 0 0 0 0 0 0 0 0 0 0 0 0 0 0 0 0 0 0 0 0 0 0 0 0 0 0 0 0 0 0 0 0 0 0 0 0 0 0 0 0 0 0 0 0 0 0 0 0 0 0 0 0 0 0 0 0 0 0 0 0 0 0 0 0 0 0 0 0 0 0 0 0 0 0 0 0 0 0 0 0 0 0 0 0 0 0 0 0 0 0 0 0 0 0 0 0 0 0 0 0 0 0 0 0 0 0 0 0 0 0 0 0 0 0 0 0 0 0 0 0 0 0 0 0 0 0 0 0 0 0 0 0 0 0 0 0 0 0 0 0 0 

SCALARS geom_link_id int 1
LOOKUP_TABLE default
-1 -1 0 0 -1 0 0 -1 0 -1 0 0 0 0 -1 -1 -1 -1 0 0 0 0 -1 0 0 -1 0 -1 0 0 0 0 -1 0 0 0 0 -1 0 0 0 0 -1 -1 0 0 0 0 -1 0 -1 -1 0 0 0 -1 0 0 -1 0 0 0 0 0 0 0 0 0 0 0 0 0 0 0 0 0 0 0 0 0 0 0 0 0 -1 -1 -1 0 0 0 0 0 0 0 0 0 0 0 0 0 0 0 0 0 0 0 0 0 0 0 0 0 0 0 0 0 0 0 0 0 0 0 0 0 0 0 0 0 0 0 0 0 0 0 -1 -1 -1 -1 -1 -1 -1 -1 -1 -1 -1 -1 -1 -1 -1 -1 -1 -1 -1 -1 -1 -1 -1 -1 -1 -1 -1 -1 -1 -1 -1 -1 -1 -1 -1 -1 -1 -1 -1 -1 -1 -1 -1 -1 -1 -1 -1 -1 -1 -1 

