# vtk DataFile Version 3.0
Generated by GMDS VTK Writer

ASCII
DATASET UNSTRUCTURED_GRID
POINTS 150 float
-5 -5 -5
-5 5 -5
5 5 -5
5 -5 -5
-5 -5 5
-5 5 5
5 5 5
5 -5 5
-5 1 -5
-5 1 5
5 1 5
5 1 -5
-5 -5 1
5 -5 1
5 1 1
-5 1 1
5 5 1
-5 5 1
-1 -5 -5
-1 1 -5
-1 1 1
-1 -5 1
-1 1 5
-1 -5 5
-1 5 -5
-1 5 1
-1 5 5
-1 4 -5
-1 4 1
5 4 1
5 4 -5
-5 4 -5
-5 4 1
-5 4 5
-1 4 5
5 4 5
-5 -5 4
-5 1 4
-1 1 4
-1 -5 4
5 1 4
5 -5 4
-1 4 4
-5 4 4
-1 5 4
-5 5 4
5 4 4
5 5 4
4 4 -5
4 4 1
4 5 1
4 5 -5
4 1 -5
4 1 1
4 -5 -5
4 -5 1
4 1 4
4 -5 4
4 1 5
4 -5 5
4 4 5
4 4 4
4 5 5
4 5 4
-1 -5 -1
-1 1 -1
4 1 -1
4 -5 -1
-5 -5 -1
-5 1 -1
4 4 -1
5 4 -1
5 1 -1
-1 4 -1
-5 4 -1
-1 5 -1
-5 5 -0.999999999999999
4 5 -1
5 5 -1
5 -5 -1
1 1 4
1 -5 4
1 -5 1
1 1 1
1 1 5
1 -5 5
1 4 5
1 4 4
1 4 1
1 5 5
1 5 4
1 5 1
1 -5 -1
1 1 -1
0.999999999999999 -5 -5
1 1 -5
1 4 -5
1 4 -1
1 5 -5
1 5 -1
-5 -1 -1
-1 -1 -1
-1 -1 1
-5 -1 1
-5 -0.999999999999999 -5
-1 -1 -5
1 -1 5
1 -1 4
4 -1 4
4 -1 5
-1 -1 5
-1 -1 4
-5 -1 4
-5 -1 5
1 -1 1
4 -1 1
5 -1 4
5 -1 1
5 -1 5
5 -1 -5
4 -1 -5
4 -1 -1
5 -1 -1
1 -1 -1
1 -1 -5
5 3 -1
4 3 -1
4 3 1
5 3 1
5 3 -5
4 3 -5
1 3 5
1 3 4
4 3 4
4 3 5
-1 3 5
-1 3 4
-5 3 -1
-1 3 -1
-1 3 1
-5 3 1
-5 3 -5
-1 3 -5
-5 3 4
-5 3 5
1 3 1
5 3 4
5 3 5
1 3 -1
1 3 -5

CELLS 296 1480
4 110 106 84 22 
4 28 42 87 88 
4 72 66 53 14 
4 140 137 74 32 
4 11 52 66 72 
4 86 87 61 60 
4 71 70 49 29 
4 30 48 70 71 
4 15 69 137 140 
4 34 42 87 86 
4 140 139 28 32 
4 15 20 139 140 
4 139 138 73 28 
4 84 80 56 58 
4 68 64 21 12 
4 20 65 138 139 
4 22 38 80 84 
4 0 18 64 68 
4 85 81 57 59 
4 23 85 106 110 
4 138 137 74 73 
4 69 65 20 15 
4 111 107 80 38 
4 23 39 81 85 
4 36 39 21 12 
4 4 23 39 36 
4 65 69 137 138 
4 135 136 132 131 
4 135 131 86 34 
4 8 19 65 69 
4 37 38 20 15 
4 9 22 38 37 
4 22 84 131 135 
4 136 132 87 42 
4 38 80 132 136 
4 135 136 42 34 
4 32 28 25 17 
4 31 27 24 1 
4 83 80 56 53 
4 51 48 30 2 
4 39 81 107 111 
4 20 38 80 83 
4 22 38 136 135 
4 33 34 26 5 
4 50 49 29 16 
4 110 111 38 22 
4 131 132 133 134 
4 134 131 86 60 
4 58 84 131 134 
4 82 81 57 55 
4 133 134 60 61 
4 23 39 111 110 
4 106 107 108 109 
4 109 106 84 58 
4 33 34 42 43 
4 43 42 28 32 
4 26 34 42 44 
4 44 42 28 25 
4 5 26 44 45 
4 45 44 25 17 
4 5 33 43 45 
4 45 43 32 17 
4 43 42 44 45 
4 56 58 134 133 
4 133 132 87 61 
4 59 85 106 109 
4 108 109 58 56 
4 56 80 132 133 
4 6 35 46 47 
4 47 46 29 16 
4 132 131 86 87 
4 80 84 131 132 
4 57 59 109 108 
4 129 130 126 125 
4 21 39 81 82 
4 129 125 71 30 
4 11 72 125 129 
4 108 107 80 56 
4 130 126 70 48 
4 57 81 107 108 
4 55 57 41 13 
4 107 106 84 80 
4 53 56 40 14 
4 52 66 126 130 
4 81 85 106 107 
4 129 130 48 30 
4 104 105 101 100 
4 59 57 41 7 
4 104 100 69 8 
4 58 56 40 10 
4 11 52 130 129 
4 0 68 100 104 
4 105 101 65 19 
4 60 61 46 35 
4 18 64 101 105 
4 104 105 19 8 
4 49 61 46 29 
4 0 18 105 104 
4 62 60 35 6 
4 100 101 102 103 
4 61 63 47 46 
4 103 100 69 15 
4 62 63 47 6 
4 62 60 61 63 
4 12 68 100 103 
4 50 63 47 16 
4 63 61 49 50 
4 103 102 20 15 
4 12 21 102 103 
4 102 101 65 20 
4 27 31 74 73 
4 73 74 32 28 
4 24 27 73 75 
4 75 73 28 25 
4 1 24 75 76 
4 76 75 25 17 
4 1 31 74 76 
4 76 74 32 17 
4 74 73 75 76 
4 48 51 77 70 
4 70 77 50 49 
4 2 30 71 78 
4 78 71 29 16 
4 2 51 77 78 
4 78 77 50 16 
4 77 70 71 78 
4 21 64 101 102 
4 101 100 69 65 
4 64 68 100 101 
4 125 126 127 128 
4 128 125 71 29 
4 3 54 67 79 
4 79 67 55 13 
4 14 72 125 128 
4 88 87 61 49 
4 26 34 86 89 
4 89 86 60 62 
4 42 44 90 87 
4 87 90 63 61 
4 26 44 90 89 
4 89 90 63 62 
4 89 86 87 90 
4 25 28 88 91 
4 91 88 49 50 
4 25 44 90 91 
4 91 90 63 50 
4 90 87 88 91 
4 128 127 49 29 
4 14 53 127 128 
4 20 65 93 83 
4 83 93 66 53 
4 21 64 92 82 
4 82 92 67 55 
4 127 126 70 49 
4 53 66 126 127 
4 126 125 71 70 
4 19 65 93 95 
4 95 93 66 52 
4 18 64 92 94 
4 94 92 67 54 
4 66 72 125 126 
4 27 73 97 96 
4 96 97 70 48 
4 28 73 97 88 
4 88 97 70 49 
4 24 27 96 98 
4 98 96 48 51 
4 73 75 99 97 
4 97 99 77 70 
4 24 75 99 98 
4 98 99 77 51 
4 98 96 97 99 
4 25 75 99 91 
4 91 99 77 50 
4 99 97 88 91 
4 110 111 107 106 
4 36 39 111 112 
4 112 111 38 37 
4 21 39 111 102 
4 102 111 38 20 
4 12 36 112 103 
4 103 112 37 15 
4 112 111 102 103 
4 4 23 110 113 
4 113 110 22 9 
4 4 36 112 113 
4 113 112 37 9 
4 113 110 111 112 
4 81 82 114 107 
4 107 114 83 80 
4 55 57 108 115 
4 115 108 56 53 
4 55 82 114 115 
4 115 114 83 53 
4 114 107 108 115 
4 21 82 114 102 
4 102 114 83 20 
4 102 111 107 114 
4 41 57 108 116 
4 116 108 56 40 
4 13 41 116 117 
4 117 116 40 14 
4 13 55 115 117 
4 117 115 53 14 
4 115 108 116 117 
4 7 41 116 118 
4 118 116 40 10 
4 7 59 109 118 
4 118 109 58 10 
4 109 108 116 118 
4 3 54 120 119 
4 119 120 52 11 
4 54 67 121 120 
4 120 121 66 52 
4 67 79 122 121 
4 121 122 72 66 
4 3 79 122 119 
4 119 122 72 11 
4 119 120 121 122 
4 55 67 121 115 
4 115 121 66 53 
4 13 79 122 117 
4 117 122 72 14 
4 122 121 115 117 
4 64 92 123 101 
4 101 123 93 65 
4 82 92 123 114 
4 114 123 93 83 
4 102 101 123 114 
4 67 92 123 121 
4 121 123 93 66 
4 114 123 121 115 
4 92 94 124 123 
4 123 124 95 93 
4 18 94 124 105 
4 105 124 95 19 
4 105 101 123 124 
4 54 94 124 120 
4 120 124 95 52 
4 124 123 121 120 
4 137 138 139 140 
4 8 19 142 141 
4 141 142 27 31 
4 19 65 138 142 
4 142 138 73 27 
4 8 69 137 141 
4 141 137 74 31 
4 141 142 138 137 
4 37 38 136 143 
4 143 136 42 43 
4 20 38 136 139 
4 139 136 42 28 
4 15 37 143 140 
4 140 143 43 32 
4 143 136 139 140 
4 9 22 135 144 
4 144 135 34 33 
4 9 37 143 144 
4 144 143 43 33 
4 144 135 136 143 
4 80 83 145 132 
4 132 145 88 87 
4 53 56 133 127 
4 127 133 61 49 
4 53 83 145 127 
4 127 145 88 49 
4 145 132 133 127 
4 20 83 145 139 
4 139 145 88 28 
4 139 136 132 145 
4 40 56 133 146 
4 146 133 61 46 
4 14 40 146 128 
4 128 146 46 29 
4 127 133 146 128 
4 10 40 146 147 
4 147 146 46 35 
4 10 58 134 147 
4 147 134 60 35 
4 134 133 146 147 
4 65 93 148 138 
4 138 148 97 73 
4 83 93 148 145 
4 145 148 97 88 
4 139 138 148 145 
4 66 93 148 126 
4 126 148 97 70 
4 145 148 126 127 
4 93 95 149 148 
4 148 149 96 97 
4 19 95 149 142 
4 142 149 96 27 
4 142 138 148 149 
4 52 95 149 130 
4 130 149 96 48 
4 149 148 126 130 

CELL_TYPES 296
9 
9 
9 
9 
9 
9 
9 
9 
9 
9 
9 
9 
9 
9 
9 
9 
9 
9 
9 
9 
9 
9 
9 
9 
9 
9 
9 
9 
9 
9 
9 
9 
9 
9 
9 
9 
9 
9 
9 
9 
9 
9 
9 
9 
9 
9 
9 
9 
9 
9 
9 
9 
9 
9 
9 
9 
9 
9 
9 
9 
9 
9 
9 
9 
9 
9 
9 
9 
9 
9 
9 
9 
9 
9 
9 
9 
9 
9 
9 
9 
9 
9 
9 
9 
9 
9 
9 
9 
9 
9 
9 
9 
9 
9 
9 
9 
9 
9 
9 
9 
9 
9 
9 
9 
9 
9 
9 
9 
9 
9 
9 
9 
9 
9 
9 
9 
9 
9 
9 
9 
9 
9 
9 
9 
9 
9 
9 
9 
9 
9 
9 
9 
9 
9 
9 
9 
9 
9 
9 
9 
9 
9 
9 
9 
9 
9 
9 
9 
9 
9 
9 
9 
9 
9 
9 
9 
9 
9 
9 
9 
9 
9 
9 
9 
9 
9 
9 
9 
9 
9 
9 
9 
9 
9 
9 
9 
9 
9 
9 
9 
9 
9 
9 
9 
9 
9 
9 
9 
9 
9 
9 
9 
9 
9 
9 
9 
9 
9 
9 
9 
9 
9 
9 
9 
9 
9 
9 
9 
9 
9 
9 
9 
9 
9 
9 
9 
9 
9 
9 
9 
9 
9 
9 
9 
9 
9 
9 
9 
9 
9 
9 
9 
9 
9 
9 
9 
9 
9 
9 
9 
9 
9 
9 
9 
9 
9 
9 
9 
9 
9 
9 
9 
9 
9 
9 
9 
9 
9 
9 
9 
9 
9 
9 
9 
9 
9 
9 
9 
9 
9 
9 
9 
9 
9 
9 
9 
9 
9 
9 
9 
9 
9 
9 
9 
9 
9 
9 
9 
9 
9 
9 
9 
9 
9 
9 
9 
POINT_DATA 150
SCALARS GMDS_ID int 1
LOOKUP_TABLE default
0 1 2 3 4 5 6 7 8 9 10 11 12 13 14 15 16 17 18 19 20 21 22 23 24 25 26 27 28 29 30 31 32 33 34 35 36 37 38 39 40 41 42 43 44 45 46 47 48 49 50 51 52 53 54 55 56 57 58 59 60 61 62 63 64 65 66 67 68 69 70 71 72 73 74 75 76 77 78 79 80 81 82 83 84 85 86 87 88 89 90 91 92 93 94 95 96 97 98 99 100 101 102 103 104 105 106 107 108 109 110 111 112 113 114 115 116 117 118 119 120 121 122 123 124 125 126 127 128 129 130 131 132 133 134 135 136 137 138 139 140 141 142 143 144 145 146 147 148 149 
SCALARS geom_link_dim int 1
LOOKUP_TABLE default
1 1 1 1 1 1 1 1 2 2 2 2 2 2 3 3 2 2 2 3 0 3 3 2 2 3 2 3 0 3 2 2 3 2 3 2 2 3 0 3 3 2 0 3 3 2 3 2 3 0 3 2 3 0 2 3 0 3 3 2 3 0 2 3 3 0 0 3 2 3 0 3 3 0 3 3 2 3 2 2 0 3 3 0 3 2 3 0 0 2 3 3 3 0 2 3 3 0 2 3 3 0 0 3 2 3 3 0 0 3 3 0 3 2 0 0 3 3 2 2 3 0 3 0 3 3 0 0 3 2 3 3 0 0 3 3 0 3 0 0 3 2 3 3 2 0 3 2 0 3 
SCALARS geom_link_id int 1
LOOKUP_TABLE default
18 20 24 21 17 19 23 22 32 33 24 34 31 29 12 17 25 28 30 13 0 18 10 35 36 11 23 13 0 12 34 32 17 33 10 24 31 17 0 18 12 29 0 17 11 28 12 25 13 0 11 36 13 0 30 18 0 18 10 35 10 0 23 11 18 0 0 18 31 17 0 12 12 0 17 11 28 11 25 29 0 18 18 0 10 35 10 0 0 23 11 11 18 0 30 13 13 0 36 11 17 0 0 17 32 13 10 0 0 10 10 0 17 33 0 0 12 12 24 34 13 0 12 0 13 12 -1 -1 12 34 13 10 -1 -1 10 10 -1 17 -1 -1 17 32 13 17 33 -1 12 24 -1 13 


CELL_DATA 296
SCALARS GMDS_ID int 1
LOOKUP_TABLE default
0 1 4 6 7 10 12 13 14 15 18 20 22 23 24 25 26 27 28 30 31 32 34 35 36 37 38 39 40 41 42 43 44 45 46 47 48 50 51 52 53 54 55 57 58 59 60 61 62 63 64 65 66 67 70 71 75 76 77 78 79 80 81 82 83 86 87 88 89 90 91 92 93 94 95 96 97 98 99 100 101 102 103 104 105 106 107 108 109 110 111 112 114 115 116 119 120 122 123 124 125 126 127 128 129 130 131 135 136 137 138 139 143 144 145 146 147 148 149 150 151 152 153 154 155 156 157 158 159 160 161 162 163 164 165 169 170 171 172 173 174 175 176 177 178 179 180 181 182 183 184 185 186 187 188 189 190 191 192 193 194 197 198 202 203 205 206 207 208 209 210 211 212 213 214 215 216 217 218 219 220 221 222 223 224 225 226 227 228 229 230 231 232 233 234 235 236 237 238 239 240 241 242 243 244 245 246 247 248 249 250 251 252 253 254 255 256 257 258 259 260 261 262 263 264 265 266 267 268 269 270 271 272 273 274 275 276 277 278 279 280 281 282 283 284 285 286 287 288 289 290 291 292 293 294 295 296 297 298 299 300 301 302 303 304 305 306 307 308 309 310 311 312 313 314 315 316 317 318 319 320 321 322 323 324 325 326 327 328 329 330 331 332 333 334 335 

SCALARS geom_link_dim int 1
LOOKUP_TABLE default
0 0 0 0 0 0 0 0 0 0 0 0 0 0 0 0 0 0 0 0 0 0 0 0 0 0 0 0 0 0 0 0 0 0 0 0 0 0 0 0 0 0 0 0 0 0 0 0 0 0 0 0 0 0 0 0 0 0 0 0 0 0 0 0 0 0 0 0 0 0 0 0 0 0 0 0 0 0 0 0 0 0 0 0 0 0 0 0 0 0 0 0 0 0 0 0 0 0 0 0 0 0 0 0 0 0 0 0 0 0 0 0 0 0 0 0 0 0 0 0 0 0 0 0 0 0 0 0 0 0 0 0 0 0 0 0 0 0 0 0 0 0 0 0 0 0 0 0 0 0 0 0 0 0 0 0 0 0 0 0 0 0 0 0 0 0 0 0 0 0 0 0 0 0 0 0 0 0 0 0 0 0 0 0 0 0 0 0 0 0 0 0 0 0 0 0 0 0 0 0 0 0 0 0 0 0 0 0 0 0 0 0 0 0 0 0 0 0 0 0 0 0 0 0 0 0 0 0 0 0 0 0 0 0 0 0 0 0 0 0 0 0 0 0 0 0 0 0 0 0 0 0 0 0 0 0 0 0 0 0 0 0 0 0 0 0 0 0 0 0 0 0 0 0 0 0 0 0 0 0 0 0 0 0 0 0 0 0 0 0 0 0 0 0 0 0 

SCALARS geom_link_id int 1
LOOKUP_TABLE default
0 0 0 -1 0 0 0 0 -1 0 -1 -1 -1 0 0 -1 0 0 0 0 -1 0 0 0 0 0 -1 -1 -1 0 0 0 -1 -1 -1 -1 0 0 0 0 0 0 -1 0 0 0 -1 -1 -1 0 -1 0 0 0 0 0 0 0 0 0 0 0 0 -1 -1 0 0 -1 0 0 -1 -1 0 -1 0 -1 -1 0 -1 0 0 0 0 -1 0 -1 0 0 0 0 -1 0 0 0 0 0 0 0 0 0 0 0 0 0 0 0 0 0 0 0 0 0 0 0 0 0 0 0 0 0 0 0 0 0 0 0 0 0 0 -1 -1 0 0 -1 0 0 0 0 0 0 0 0 0 0 0 0 0 -1 -1 0 0 0 0 -1 -1 -1 0 0 0 0 -1 0 0 0 0 0 0 0 0 0 0 0 0 0 0 0 0 0 0 0 0 0 0 0 0 0 0 0 0 0 0 0 0 0 0 0 0 0 0 0 0 0 0 0 0 0 0 0 0 0 0 0 0 0 0 0 0 0 0 0 0 0 0 0 0 0 0 0 0 0 0 0 0 0 0 0 0 0 0 0 -1 -1 -1 -1 -1 -1 -1 -1 -1 -1 -1 -1 -1 -1 -1 -1 -1 -1 -1 -1 -1 -1 -1 -1 -1 -1 -1 -1 -1 -1 -1 -1 -1 -1 -1 -1 -1 -1 -1 -1 -1 -1 -1 -1 -1 -1 -1 -1 -1 -1 -1 -1 -1 -1 -1 -1 

