# vtk DataFile Version 3.0
Generated by GMDS VTK Writer

ASCII
DATASET UNSTRUCTURED_GRID
POINTS 48 float
-5 -5 -5
-5 5 -5
5 5 -5
5 -5 -5
-5 -5 5
-5 5 5
5 5 5
5 -5 5
-5 -1 -5
-5 -1 5
5 -1 5
5 -1 -5
-5 -5 -1
5 -5 -1
5 -1 -1
-5 -1 -1
5 5 -1
-5 5 -1
-1 -5 -5
-1 -1 -5
-1 -1 -1
-1 -5 -1
-1 -1 5
-1 -5 5
-1 5 -5
-1 5 -1
-1 5 5
-1 0.999999999999999 -5
-1 1 -1
5 0.999999999999999 -1
5 0.999999999999999 -5
-5 1 -5
-5 1 -1
-5 0.999999999999999 5
-1 0.999999999999999 5
5 0.999999999999999 5
-5 -5 1
-5 -1 1
-1 -1 1
-1 -5 1
5 -1 1
5 -5 1
-1 1 1
-5 1 1
-1 5 1
-5 5 1
5 0.999999999999999 1
5 5 1

CELLS 75 375
4 3 11 14 13 
4 0 12 21 18 
4 15 20 28 32 
4 21 20 14 13 
4 31 32 17 1 
4 12 15 20 21 
4 19 20 14 11 
4 8 15 32 31 
4 27 28 29 30 
4 8 15 20 19 
4 18 19 11 3 
4 30 27 24 2 
4 11 19 27 30 
4 0 8 19 18 
4 30 29 16 2 
4 11 14 29 30 
4 0 8 15 12 
4 29 28 25 16 
4 7 10 40 41 
4 40 38 20 14 
4 14 20 28 29 
4 27 28 25 24 
4 10 22 38 40 
4 36 37 38 39 
4 19 20 28 27 
4 18 21 13 3 
4 18 19 20 21 
4 4 9 22 23 
4 23 22 10 7 
4 36 39 21 12 
4 4 23 39 36 
4 38 39 21 20 
4 22 23 39 38 
4 1 17 25 24 
4 24 25 16 2 
4 37 38 20 15 
4 9 22 38 37 
4 36 37 15 12 
4 4 9 37 36 
4 32 28 25 17 
4 8 19 27 31 
4 31 27 24 1 
4 31 32 28 27 
4 9 22 34 33 
4 33 34 26 5 
4 10 22 34 35 
4 35 34 26 6 
4 41 40 14 13 
4 7 23 39 41 
4 41 39 21 13 
4 39 38 40 41 
4 22 34 42 38 
4 38 42 28 20 
4 33 34 42 43 
4 43 42 28 32 
4 9 33 43 37 
4 37 43 32 15 
4 37 38 42 43 
4 26 34 42 44 
4 44 42 28 25 
4 5 26 44 45 
4 45 44 25 17 
4 5 33 43 45 
4 45 43 32 17 
4 43 42 44 45 
4 34 35 46 42 
4 42 46 29 28 
4 10 35 46 40 
4 40 46 29 14 
4 40 38 42 46 
4 6 26 44 47 
4 47 44 25 16 
4 6 35 46 47 
4 47 46 29 16 
4 46 42 44 47 

CELL_TYPES 75
9 
9 
9 
9 
9 
9 
9 
9 
9 
9 
9 
9 
9 
9 
9 
9 
9 
9 
9 
9 
9 
9 
9 
9 
9 
9 
9 
9 
9 
9 
9 
9 
9 
9 
9 
9 
9 
9 
9 
9 
9 
9 
9 
9 
9 
9 
9 
9 
9 
9 
9 
9 
9 
9 
9 
9 
9 
9 
9 
9 
9 
9 
9 
9 
9 
9 
9 
9 
9 
9 
9 
9 
9 
9 
9 
POINT_DATA 48
SCALARS GMDS_ID int 1
LOOKUP_TABLE default
0 1 2 3 4 5 6 7 8 9 10 11 12 13 14 15 16 17 18 19 20 21 22 23 24 25 26 27 28 29 30 31 32 33 34 35 36 37 38 39 40 41 42 43 44 45 46 47 
SCALARS geom_link_dim_0 int 1
LOOKUP_TABLE default
0 0 0 0 0 0 0 0 0 0 0 0 0 0 0 0 0 0 0 0 0 0 0 0 0 0 0 0 0 0 0 0 0 0 0 0 0 0 0 0 0 0 0 0 0 0 0 0 
SCALARS geom_link_id_0 int 1
LOOKUP_TABLE default
0 0 0 0 0 0 0 0 0 0 0 0 0 0 0 0 0 0 0 0 0 0 0 0 0 0 0 0 0 0 0 0 0 0 0 0 0 0 0 0 0 0 0 0 0 0 0 0 


CELL_DATA 75
SCALARS GMDS_ID int 1
LOOKUP_TABLE default
1 2 3 4 5 6 7 8 9 10 11 12 13 14 15 16 17 19 20 21 22 23 24 25 26 27 28 31 32 36 37 38 39 40 41 42 43 44 47 48 49 50 51 56 57 61 62 64 65 66 67 68 69 70 71 72 73 74 75 76 77 78 79 80 81 82 83 84 85 86 87 88 89 90 91 

SCALARS geom_link_dim_0 int 1
LOOKUP_TABLE default
0 0 0 0 0 0 0 0 0 0 0 0 0 0 0 0 0 0 0 0 0 0 0 0 0 0 0 0 0 0 0 0 0 0 0 0 0 0 0 0 0 0 0 0 0 0 0 0 0 0 0 0 0 0 0 0 0 0 0 0 0 0 0 0 0 0 0 0 0 0 0 0 0 0 0 

SCALARS geom_link_id_0 int 1
LOOKUP_TABLE default
0 0 0 0 0 0 0 0 0 0 0 0 0 0 0 0 0 0 0 0 0 0 0 0 0 0 0 0 0 0 0 0 0 0 0 0 0 0 0 0 0 0 0 0 0 0 0 0 0 0 0 0 0 0 0 0 0 0 0 0 0 0 0 0 0 0 0 0 0 0 0 0 0 0 0 

