# vtk DataFile Version 3.0
Generated by GMDS VTK Writer

ASCII
DATASET UNSTRUCTURED_GRID
POINTS 32 float
0 0 0
0 10 0
10 10 0
10 0 0
0 0 10
0 10 10
10 10 10
10 0 10
0 1 0
0 1 10
10 1 10
10 1 0
0 0 4
10 0 4
10 1 4
0 1 4
10 10 4
0 10 4
0 3 0
10 3 0
10 3 4
0 3 4
10 3 10
0 3 10
0 0 5
10 0 5
10 1 5
0 1 5
0 10 5
10 10 5
10 3 5
0 3 5

CELLS 9 81
8 0 3 11 8 12 13 14 15 
8 18 19 20 21 8 11 14 15 
8 1 2 16 17 18 19 20 21 
8 24 25 26 27 12 13 14 15 
8 4 7 10 9 24 25 26 27 
8 5 6 22 23 28 29 30 31 
8 28 29 30 31 17 16 20 21 
8 23 22 10 9 31 30 26 27 
8 31 30 26 27 21 20 14 15 

CELL_TYPES 9
12 
12 
12 
12 
12 
12 
12 
12 
12 
POINT_DATA 32
SCALARS GMDS_ID int 1
LOOKUP_TABLE default
0 1 2 3 4 5 6 7 8 9 10 11 12 13 14 15 16 17 18 19 20 21 22 23 24 25 26 27 28 29 30 31 
SCALARS geom_link_dim int 1
LOOKUP_TABLE default
0 1 0 1 0 1 1 1 1 1 2 2 0 2 3 2 2 2 2 2 1 1 2 2 0 2 3 2 2 2 1 1 
SCALARS geom_link_id int 1
LOOKUP_TABLE default
-1 7 -1 30 -1 2 14 16 8 1 34 30 -1 27 2 17 29 24 23 30 37 10 34 28 -1 27 2 17 24 29 38 9 


CELL_DATA 9
SCALARS GMDS_ID int 1
LOOKUP_TABLE default
0 1 2 4 5 8 9 10 11 

SCALARS is_in int 1
LOOKUP_TABLE default
1 1 1 1 1 1 1 1 1 

SCALARS geom_link_dim int 1
LOOKUP_TABLE default
0 0 0 0 0 0 0 0 0 

SCALARS geom_link_id int 1
LOOKUP_TABLE default
0 0 0 -1 -1 -1 -1 -1 -1 

