# vtk DataFile Version 3.0
Generated by GMDS VTK Writer

ASCII
DATASET UNSTRUCTURED_GRID
POINTS 27 float
0 0 0
0 10 0
10 10 0
10 0 0
0 0 10
0 10 10
10 10 10
10 0 10
0 5 0
0 5 10
10 5 10
10 5 0
8 0 0
8 0 10
8 5 10
8 5 0
8 10 10
8 10 0
0 0 4
0 5 4
8 5 4
8 0 4
10 5 4
10 0 4
0 10 4
8 10 4
10 10 4

CELLS 8 72
8 18 19 20 21 4 9 14 13 
8 0 8 15 12 18 19 20 21 
8 12 15 11 3 21 20 22 23 
8 21 20 22 23 13 14 10 7 
8 1 8 15 17 24 19 20 25 
8 24 19 20 25 5 9 14 16 
8 17 15 11 2 25 20 22 26 
8 25 20 22 26 16 14 10 6 

CELL_TYPES 8
12 
12 
12 
12 
12 
12 
12 
12 
POINT_DATA 27
SCALARS GMDS_ID int 1
LOOKUP_TABLE default
0 1 2 3 4 5 6 7 8 9 10 11 12 13 14 15 16 17 18 19 20 21 22 23 24 25 26 
SCALARS geom_link_dim int 1
LOOKUP_TABLE default
0 1 0 1 0 1 1 1 2 2 2 2 2 2 3 3 2 1 0 3 0 3 3 2 2 3 2 
SCALARS geom_link_id int 1
LOOKUP_TABLE default
-1 7 -1 30 -1 2 14 16 23 28 34 30 26 25 4 3 19 21 -1 5 -1 14 2 27 24 1 29 


CELL_DATA 8
SCALARS GMDS_ID int 1
LOOKUP_TABLE default
1 2 6 7 8 9 10 11 

SCALARS is_in int 1
LOOKUP_TABLE default
1 1 1 1 1 1 1 1 

SCALARS geom_link_dim int 1
LOOKUP_TABLE default
0 0 0 0 0 0 0 0 

SCALARS geom_link_id int 1
LOOKUP_TABLE default
-1 -1 -1 -1 -1 -1 -1 -1 

