# vtk DataFile Version 3.0
Generated by GMDS VTK Writer

ASCII
DATASET UNSTRUCTURED_GRID
POINTS 36 float
0 0 0
0 10 0
10 10 0
10 0 0
0 0 10
0 10 10
10 10 10
10 0 10
0 5 0
0 5 10
10 5 10
10 5 0
7 0 0
7 0 10
7 5 10
7 5 0
7 10 10
7 10 0
7 1 0
7 1 10
10 1 10
10 1 0
0 1 0
0 1 10
10 0 4
7 0 4
7 1 4
10 1 4
0 10 4
0 5 4
7 5 4
7 10 4
10 5 4
10 10 4
0 0 4
0 1 4

CELLS 12 108
8 3 12 18 21 24 25 26 27 
8 24 25 26 27 7 13 19 20 
8 1 8 15 17 28 29 30 31 
8 28 29 30 31 5 9 14 16 
8 17 15 11 2 31 30 32 33 
8 31 30 32 33 16 14 10 6 
8 21 18 15 11 27 26 30 32 
8 27 26 30 32 20 19 14 10 
8 0 12 18 22 34 25 26 35 
8 34 25 26 35 4 13 19 23 
8 22 18 15 8 35 26 30 29 
8 35 26 30 29 23 19 14 9 

CELL_TYPES 12
12 
12 
12 
12 
12 
12 
12 
12 
12 
12 
12 
12 
POINT_DATA 36
SCALARS GMDS_ID int 1
LOOKUP_TABLE default
0 1 2 3 4 5 6 7 8 9 10 11 12 13 14 15 16 17 18 19 20 21 22 23 24 25 26 27 28 29 30 31 32 33 34 35 
SCALARS geom_link_dim int 1
LOOKUP_TABLE default
0 1 0 1 0 1 1 1 2 2 2 2 2 2 1 1 2 2 3 3 2 2 1 1 2 3 0 3 2 3 0 3 3 2 0 2 
SCALARS geom_link_id int 1
LOOKUP_TABLE default
-1 7 -1 30 -1 2 14 16 23 28 34 30 26 25 19 35 19 22 3 4 34 30 8 1 27 14 -1 2 24 5 -1 1 2 29 -1 17 


CELL_DATA 12
SCALARS GMDS_ID int 1
LOOKUP_TABLE default
0 3 8 9 10 11 12 13 14 15 16 17 

SCALARS is_in int 1
LOOKUP_TABLE default
1 1 1 1 1 1 1 1 1 1 1 1 

SCALARS geom_link_dim int 1
LOOKUP_TABLE default
0 0 0 0 0 0 0 0 0 0 0 0 

SCALARS geom_link_id int 1
LOOKUP_TABLE default
-1 -1 -1 -1 -1 -1 -1 -1 -1 -1 -1 -1 

