# vtk DataFile Version 3.0
Generated by GMDS VTK Writer

ASCII
DATASET UNSTRUCTURED_GRID
POINTS 36 float
0 0 0
0 10 0
10 10 0
10 0 0
0 0 10
0 10 10
10 10 10
10 0 10
0 5 0
0 5 10
10 5 10
10 5 0
8 0 0
8 0 10
8 5 10
8 5 0
8 10 10
8 10 0
0 0 4
0 5 4
8 5 4
8 0 4
10 5 4
10 0 4
0 10 4
8 10 4
10 10 4
0 4 0
8 4 0
8 4 4
0 4 4
8 4 10
0 4 10
10 4 0
10 4 4
10 4 10

CELLS 12 108
8 30 29 31 32 19 20 14 9 
8 18 21 13 4 30 29 31 32 
8 27 28 29 30 8 15 20 19 
8 0 12 21 18 27 28 29 30 
8 1 8 15 17 24 19 20 25 
8 24 19 20 25 5 9 14 16 
8 17 15 11 2 25 20 22 26 
8 25 20 22 26 16 14 10 6 
8 3 12 21 23 33 28 29 34 
8 33 28 29 34 11 15 20 22 
8 23 21 13 7 34 29 31 35 
8 34 29 31 35 22 20 14 10 

CELL_TYPES 12
12 
12 
12 
12 
12 
12 
12 
12 
12 
12 
12 
12 
POINT_DATA 36
SCALARS GMDS_ID int 1
LOOKUP_TABLE default
0 1 2 3 4 5 6 7 8 9 10 11 12 13 14 15 16 17 18 19 20 21 22 23 24 25 26 27 28 29 30 31 32 33 34 35 
SCALARS geom_link_dim int 1
LOOKUP_TABLE default
0 1 0 1 0 1 1 1 2 2 2 2 2 2 3 3 2 1 0 3 0 3 3 2 2 3 2 2 3 0 1 3 2 2 1 2 
SCALARS geom_link_id int 1
LOOKUP_TABLE default
-1 7 -1 30 -1 2 14 16 23 28 34 30 26 25 4 3 19 21 -1 5 0 14 2 27 24 1 29 23 3 -1 12 4 28 30 40 34 


CELL_DATA 12
SCALARS GMDS_ID int 1
LOOKUP_TABLE default
0 3 4 5 8 9 10 11 12 13 14 15 

SCALARS is_in int 1
LOOKUP_TABLE default
1 1 1 1 1 1 1 1 1 1 1 1 

SCALARS geom_link_dim int 1
LOOKUP_TABLE default
0 0 0 0 0 0 0 0 0 0 0 0 

SCALARS geom_link_id int 1
LOOKUP_TABLE default
-1 -1 -1 -1 0 0 0 0 -1 -1 -1 -1 

