# vtk DataFile Version 3.0
Generated by GMDS VTK Writer

ASCII
DATASET UNSTRUCTURED_GRID
POINTS 24 float
0 0 0
0 10 0
10 10 0
10 0 0
0 0 10
0 10 10
10 10 10
10 0 10
0 1 0
0 1 10
10 1 10
10 1 0
0 0 4
10 0 4
10 1 4
0 1 4
10 10 4
0 10 4
0 3 0
10 3 0
10 3 4
0 3 4
10 3 10
0 3 10

CELLS 6 54
8 0 3 11 8 12 13 14 15 
8 18 19 20 21 8 11 14 15 
8 1 2 16 17 18 19 20 21 
8 12 13 14 15 4 7 10 9 
8 17 16 6 5 21 20 22 23 
8 21 20 22 23 15 14 10 9 

CELL_TYPES 6
12 
12 
12 
12 
12 
12 
POINT_DATA 24
SCALARS GMDS_ID int 1
LOOKUP_TABLE default
0 1 2 3 4 5 6 7 8 9 10 11 12 13 14 15 16 17 18 19 20 21 22 23 
SCALARS geom_link_dim int 1
LOOKUP_TABLE default
0 1 0 1 0 1 1 1 1 1 2 2 0 2 3 2 2 2 2 2 1 1 2 2 
SCALARS geom_link_id int 1
LOOKUP_TABLE default
-1 7 -1 30 -1 2 14 16 8 1 34 30 -1 27 2 17 29 24 23 30 37 10 34 28 


CELL_DATA 6
SCALARS GMDS_ID int 1
LOOKUP_TABLE default
0 1 2 3 6 7 

SCALARS is_in int 1
LOOKUP_TABLE default
1 1 1 1 1 1 

SCALARS geom_link_dim int 1
LOOKUP_TABLE default
0 0 0 0 0 0 

SCALARS geom_link_id int 1
LOOKUP_TABLE default
0 -1 -1 0 -1 -1 

