# vtk DataFile Version 3.0
Generated by GMDS VTK Writer

ASCII
DATASET UNSTRUCTURED_GRID
POINTS 32 float
0 0 0
0 10 0
10 10 0
10 0 0
0 0 10
0 10 10
10 10 10
10 0 10
0 1 0
0 1 10
10 1 10
10 1 0
0 0 4
10 0 4
10 1 4
0 1 4
10 10 4
0 10 4
0 3 0
10 3 0
10 3 4
0 3 4
10 3 10
0 3 10
0 0 5
10 0 5
10 1 5
0 1 5
0 10 5
10 10 5
10 3 5
0 3 5

CELLS 64 192
2 1 2
2 3 13
2 3 0
2 5 6
2 0 12
2 7 4
2 16 20
2 18 8
2 1 18
2 2 19
2 0 8
2 10 26
2 4 9
2 24 12
2 7 10
2 4 24
2 3 11
2 7 25
2 20 14
2 9 10
2 19 11
2 8 11
2 11 14
2 8 15
2 12 13
2 13 14
2 15 14
2 12 15
2 2 16
2 1 17
2 25 13
2 17 16
2 26 14
2 17 21
2 21 15
2 18 19
2 19 20
2 20 21
2 18 21
2 6 22
2 22 10
2 5 23
2 23 9
2 23 22
2 9 27
2 27 15
2 24 25
2 25 26
2 27 26
2 24 27
2 5 28
2 28 17
2 6 29
2 29 16
2 22 30
2 30 20
2 23 31
2 31 21
2 28 29
2 29 30
2 30 31
2 28 31
2 26 30
2 27 31

CELL_TYPES 64
3 
3 
3 
3 
3 
3 
3 
3 
3 
3 
3 
3 
3 
3 
3 
3 
3 
3 
3 
3 
3 
3 
3 
3 
3 
3 
3 
3 
3 
3 
3 
3 
3 
3 
3 
3 
3 
3 
3 
3 
3 
3 
3 
3 
3 
3 
3 
3 
3 
3 
3 
3 
3 
3 
3 
3 
3 
3 
3 
3 
3 
3 
3 
3 
POINT_DATA 32
SCALARS GMDS_ID int 1
LOOKUP_TABLE default
0 1 2 3 4 5 6 7 8 9 10 11 12 13 14 15 16 17 18 19 20 21 22 23 24 25 26 27 28 29 30 31 
SCALARS geom_link_dim int 1
LOOKUP_TABLE default
0 1 0 1 0 1 1 1 1 1 2 2 0 2 3 2 2 2 2 2 1 1 2 2 0 2 3 2 2 2 1 1 
SCALARS geom_link_id int 1
LOOKUP_TABLE default
-1 7 -1 30 -1 2 14 16 8 1 34 30 -1 27 2 17 29 24 23 30 37 10 34 28 -1 27 2 17 24 29 38 9 


CELL_DATA 64
SCALARS GMDS_ID int 1
LOOKUP_TABLE default
1 2 3 5 6 7 8 9 10 11 12 13 14 15 16 17 18 19 20 21 22 23 24 26 28 29 30 31 32 34 36 37 38 39 40 41 42 43 44 45 46 47 48 50 52 53 54 55 56 57 58 59 60 61 62 63 64 65 66 67 68 69 70 71 

SCALARS geom_link_dim int 1
LOOKUP_TABLE default
0 2 0 2 0 0 0 2 2 0 0 0 0 0 2 0 0 2 0 0 0 0 0 2 0 0 0 0 0 0 2 0 0 0 0 0 0 0 0 2 2 2 2 0 2 2 0 0 0 0 0 0 0 0 0 2 0 2 0 0 0 0 0 0 

SCALARS geom_link_id int 1
LOOKUP_TABLE default
0 27 0 19 0 0 0 23 23 0 0 -1 0 -1 34 -1 0 27 0 0 0 0 0 17 0 0 0 0 0 0 27 0 -1 0 0 0 0 0 0 34 34 28 28 0 17 17 -1 -1 -1 -1 -1 -1 -1 -1 -1 54 -1 59 -1 -1 -1 -1 -1 -1 

