# vtk DataFile Version 3.0
Generated by GMDS VTK Writer

ASCII
DATASET UNSTRUCTURED_GRID
POINTS 36 float
0 0 0
0 10 0
10 10 0
10 0 0
0 0 10
0 10 10
10 10 10
10 0 10
0 5 0
0 5 10
10 5 10
10 5 0
8 0 0
8 0 10
8 5 10
8 5 0
8 10 10
8 10 0
0 0 4
0 5 4
8 5 4
8 0 4
10 5 4
10 0 4
0 10 4
8 10 4
10 10 4
0 4 0
8 4 0
8 4 4
0 4 4
8 4 10
0 4 10
10 4 0
10 4 4
10 4 10

CELLS 75 225
2 13 7
2 20 14
2 4 13
2 0 18
2 12 3
2 19 9
2 0 12
2 18 4
2 30 19
2 21 29
2 12 28
2 0 27
2 8 1
2 9 5
2 10 6
2 11 2
2 27 28
2 8 19
2 27 8
2 15 20
2 9 14
2 14 10
2 8 15
2 15 11
2 29 20
2 18 30
2 5 16
2 16 6
2 1 17
2 17 2
2 16 14
2 28 15
2 17 15
2 12 21
2 21 13
2 19 20
2 18 21
2 11 22
2 22 10
2 3 23
2 23 7
2 22 20
2 23 21
2 1 24
2 24 5
2 17 25
2 25 16
2 24 19
2 20 25
2 24 25
2 2 26
2 26 6
2 26 22
2 26 25
2 28 29
2 30 29
2 27 30
2 13 31
2 31 14
2 4 32
2 32 9
2 31 29
2 32 31
2 32 30
2 3 33
2 33 11
2 23 34
2 34 22
2 33 28
2 29 34
2 33 34
2 7 35
2 35 10
2 35 31
2 35 34

CELL_TYPES 75
3 
3 
3 
3 
3 
3 
3 
3 
3 
3 
3 
3 
3 
3 
3 
3 
3 
3 
3 
3 
3 
3 
3 
3 
3 
3 
3 
3 
3 
3 
3 
3 
3 
3 
3 
3 
3 
3 
3 
3 
3 
3 
3 
3 
3 
3 
3 
3 
3 
3 
3 
3 
3 
3 
3 
3 
3 
3 
3 
3 
3 
3 
3 
3 
3 
3 
3 
3 
3 
3 
3 
3 
3 
3 
3 
POINT_DATA 36
SCALARS GMDS_ID int 1
LOOKUP_TABLE default
0 1 2 3 4 5 6 7 8 9 10 11 12 13 14 15 16 17 18 19 20 21 22 23 24 25 26 27 28 29 30 31 32 33 34 35 
SCALARS geom_link_dim int 1
LOOKUP_TABLE default
0 1 0 1 0 1 1 1 2 2 2 2 2 2 3 3 2 1 0 3 0 3 3 2 2 3 2 2 3 0 1 3 2 2 1 2 
SCALARS geom_link_id int 1
LOOKUP_TABLE default
-1 7 -1 30 -1 2 14 16 23 28 34 30 26 25 4 3 19 21 -1 5 0 14 2 27 24 1 29 23 3 -1 12 4 28 30 40 34 


CELL_DATA 75
SCALARS GMDS_ID int 1
LOOKUP_TABLE default
0 1 2 3 4 5 6 7 8 9 10 11 13 15 17 19 20 21 22 23 24 25 26 27 28 30 32 33 34 35 36 37 38 39 40 42 44 45 46 47 48 49 51 52 53 54 55 56 57 58 59 60 61 62 63 64 65 66 67 68 69 70 71 72 73 74 75 76 77 78 79 80 81 82 83 

SCALARS geom_link_dim int 1
LOOKUP_TABLE default
0 0 0 0 0 0 0 0 0 0 0 0 0 0 2 0 0 0 0 0 0 0 0 0 0 0 2 2 2 0 0 0 0 0 0 0 0 0 0 2 2 0 0 0 0 0 0 0 0 0 0 0 0 0 0 0 0 0 0 0 0 0 0 0 0 0 0 0 0 0 0 2 2 0 0 

SCALARS geom_link_id int 1
LOOKUP_TABLE default
0 0 0 0 0 0 0 0 -1 -1 -1 -1 0 0 34 0 -1 0 -1 0 0 0 0 0 -1 -1 19 19 22 0 0 -1 0 0 0 0 0 0 0 27 27 0 0 0 0 0 0 0 0 0 0 0 0 0 -1 -1 -1 -1 -1 -1 -1 -1 -1 -1 -1 -1 -1 -1 -1 -1 -1 34 34 -1 -1 

