# vtk DataFile Version 3.0
Generated by GMDS VTK Writer

ASCII
DATASET UNSTRUCTURED_GRID
POINTS 24 float
0 0 0
0 10 0
10 10 0
10 0 0
0 0 10
0 10 10
10 10 10
10 0 10
0 5 0
0 5 10
10 5 10
10 5 0
7 0 0
7 0 10
7 5 10
7 5 0
7 10 10
7 10 0
7 1 0
7 1 10
10 1 10
10 1 0
0 1 0
0 1 10

CELLS 46 138
2 13 7
2 18 15
2 4 13
2 7 20
2 12 3
2 12 18
2 0 12
2 13 19
2 0 4
2 1 5
2 2 6
2 3 7
2 8 1
2 9 5
2 10 6
2 11 2
2 8 9
2 19 14
2 11 10
2 20 10
2 9 14
2 14 10
2 8 15
2 15 11
2 12 13
2 15 14
2 5 16
2 16 6
2 1 17
2 17 2
2 16 14
2 17 16
2 17 15
2 3 21
2 21 11
2 18 19
2 20 19
2 21 20
2 21 18
2 0 22
2 22 8
2 4 23
2 23 9
2 22 23
2 23 19
2 22 18

CELL_TYPES 46
3 
3 
3 
3 
3 
3 
3 
3 
3 
3 
3 
3 
3 
3 
3 
3 
3 
3 
3 
3 
3 
3 
3 
3 
3 
3 
3 
3 
3 
3 
3 
3 
3 
3 
3 
3 
3 
3 
3 
3 
3 
3 
3 
3 
3 
3 
POINT_DATA 24
SCALARS GMDS_ID int 1
LOOKUP_TABLE default
0 1 2 3 4 5 6 7 8 9 10 11 12 13 14 15 16 17 18 19 20 21 22 23 
SCALARS geom_link_dim int 1
LOOKUP_TABLE default
0 1 0 1 0 1 1 1 2 2 2 2 2 2 1 1 2 2 3 3 2 2 1 1 
SCALARS geom_link_id int 1
LOOKUP_TABLE default
-1 7 -1 30 -1 2 14 16 23 28 34 30 26 25 19 35 19 22 3 4 34 30 8 1 


CELL_DATA 46
SCALARS GMDS_ID int 1
LOOKUP_TABLE default
0 1 2 3 4 5 6 7 8 9 10 11 13 15 17 19 20 21 22 23 24 25 26 27 28 30 32 33 34 35 36 37 38 39 40 41 42 43 44 45 46 47 48 49 50 51 

SCALARS geom_link_dim int 1
LOOKUP_TABLE default
0 0 0 2 0 0 0 0 0 0 0 2 2 2 2 0 0 0 0 2 0 0 0 0 0 0 2 2 0 0 0 0 0 0 0 0 0 0 0 0 2 0 2 2 0 0 

SCALARS geom_link_id int 1
LOOKUP_TABLE default
0 -1 0 34 0 -1 0 -1 0 0 0 27 23 28 34 0 0 -1 0 34 0 0 0 0 0 0 19 19 0 0 0 0 0 -1 -1 -1 -1 -1 -1 -1 23 -1 28 17 -1 -1 

