# vtk DataFile Version 3.0
Generated by GMDS VTK Writer

ASCII
DATASET UNSTRUCTURED_GRID
POINTS 36 float
0 0 0
0 10 0
10 10 0
10 0 0
0 0 10
0 10 10
10 10 10
10 0 10
0 5 0
0 5 10
10 5 10
10 5 0
7 0 0
7 0 10
7 5 10
7 5 0
7 10 10
7 10 0
7 1 0
7 1 10
10 1 10
10 1 0
0 1 0
0 1 10
10 0 4
7 0 4
7 1 4
10 1 4
0 10 4
0 5 4
7 5 4
7 10 4
10 5 4
10 10 4
0 0 4
0 1 4

CELLS 75 225
2 13 7
2 18 15
2 4 13
2 7 20
2 12 3
2 12 18
2 0 12
2 13 19
2 26 19
2 8 1
2 18 26
2 9 5
2 24 7
2 10 6
2 3 24
2 11 2
2 19 14
2 20 10
2 9 14
2 14 10
2 8 15
2 15 11
2 12 25
2 25 13
2 5 16
2 16 6
2 1 17
2 17 2
2 16 14
2 17 15
2 3 21
2 21 11
2 20 19
2 21 18
2 0 22
2 22 8
2 4 23
2 23 9
2 23 19
2 22 18
2 21 27
2 27 20
2 24 25
2 25 26
2 26 27
2 24 27
2 1 28
2 28 5
2 8 29
2 29 9
2 15 30
2 30 14
2 17 31
2 31 16
2 28 29
2 29 30
2 30 31
2 28 31
2 11 32
2 32 10
2 2 33
2 33 6
2 32 30
2 33 32
2 33 31
2 30 26
2 32 27
2 0 34
2 34 4
2 22 35
2 35 23
2 34 25
2 26 35
2 34 35
2 29 35

CELL_TYPES 75
3 
3 
3 
3 
3 
3 
3 
3 
3 
3 
3 
3 
3 
3 
3 
3 
3 
3 
3 
3 
3 
3 
3 
3 
3 
3 
3 
3 
3 
3 
3 
3 
3 
3 
3 
3 
3 
3 
3 
3 
3 
3 
3 
3 
3 
3 
3 
3 
3 
3 
3 
3 
3 
3 
3 
3 
3 
3 
3 
3 
3 
3 
3 
3 
3 
3 
3 
3 
3 
3 
3 
3 
3 
3 
3 
POINT_DATA 36
SCALARS GMDS_ID int 1
LOOKUP_TABLE default
0 1 2 3 4 5 6 7 8 9 10 11 12 13 14 15 16 17 18 19 20 21 22 23 24 25 26 27 28 29 30 31 32 33 34 35 
SCALARS geom_link_dim int 1
LOOKUP_TABLE default
0 1 0 1 0 1 1 1 2 2 2 2 2 2 1 1 2 2 3 3 2 2 1 1 2 3 0 3 2 3 0 3 3 2 0 2 
SCALARS geom_link_id int 1
LOOKUP_TABLE default
-1 7 -1 30 -1 2 14 16 23 28 34 30 26 25 19 35 19 22 3 4 34 30 8 1 27 14 -1 2 24 5 -1 1 2 29 -1 17 


CELL_DATA 75
SCALARS GMDS_ID int 1
LOOKUP_TABLE default
0 1 2 3 4 5 6 7 12 13 14 15 16 17 18 19 21 23 24 25 26 27 29 31 32 33 34 35 36 38 39 40 42 44 45 46 47 48 50 51 52 53 54 55 56 57 58 59 60 61 62 63 64 65 66 67 68 69 70 71 72 73 74 75 76 77 78 79 80 81 82 83 84 85 86 

SCALARS geom_link_dim int 1
LOOKUP_TABLE default
0 0 0 2 0 0 0 0 0 2 0 2 2 2 2 0 0 2 0 0 0 0 0 0 2 2 0 0 0 0 0 0 0 0 0 2 0 2 0 0 0 0 0 0 0 0 0 0 0 0 0 0 0 0 0 0 0 0 0 0 0 0 0 0 0 0 0 0 0 2 2 0 0 0 0 

SCALARS geom_link_id int 1
LOOKUP_TABLE default
0 0 0 34 0 0 0 0 -1 23 -1 28 27 34 27 0 0 34 0 0 0 0 -1 -1 19 19 0 0 0 0 0 0 0 0 0 23 0 28 0 0 -1 -1 -1 -1 -1 -1 -1 -1 -1 -1 -1 -1 -1 -1 -1 -1 -1 -1 -1 -1 -1 -1 -1 -1 -1 -1 -1 -1 -1 17 17 -1 -1 -1 -1 

