# vtk DataFile Version 3.0
Generated by GMDS VTK Writer

ASCII
DATASET UNSTRUCTURED_GRID
POINTS 36 float
0 0 0
0 10 0
10 10 0
10 0 0
0 0 10
0 10 10
10 10 10
10 0 10
0 5 0
0 5 10
10 5 10
10 5 0
7 0 0
7 0 10
7 5 10
7 5 0
7 10 10
7 10 0
7 1 0
7 1 10
10 1 10
10 1 0
0 1 0
0 1 10
10 0 4
7 0 4
7 1 4
10 1 4
0 10 4
0 5 4
7 5 4
7 10 4
10 5 4
10 10 4
0 0 4
0 1 4

CELLS 52 260
4 3 21 27 24 
4 26 27 20 19 
4 3 12 18 21 
4 18 21 27 26 
4 20 19 14 10 
4 25 26 19 13 
4 7 13 19 20 
4 12 18 26 25 
4 24 25 13 7 
4 3 12 25 24 
4 5 9 14 16 
4 16 14 10 6 
4 1 8 15 17 
4 17 15 11 2 
4 21 18 15 11 
4 4 13 19 23 
4 23 19 14 9 
4 0 12 18 22 
4 22 18 15 8 
4 24 27 20 7 
4 24 25 26 27 
4 1 8 29 28 
4 28 29 9 5 
4 8 15 30 29 
4 29 30 14 9 
4 15 17 31 30 
4 30 31 16 14 
4 1 17 31 28 
4 28 31 16 5 
4 28 29 30 31 
4 11 15 30 32 
4 32 30 14 10 
4 2 11 32 33 
4 33 32 10 6 
4 2 17 31 33 
4 33 31 16 6 
4 31 30 32 33 
4 15 18 26 30 
4 30 26 19 14 
4 11 21 27 32 
4 32 27 20 10 
4 27 26 30 32 
4 0 12 25 34 
4 34 25 13 4 
4 18 22 35 26 
4 26 35 23 19 
4 0 22 35 34 
4 34 35 23 4 
4 34 25 26 35 
4 8 22 35 29 
4 29 35 23 9 
4 35 26 30 29 

CELL_TYPES 52
9 
9 
9 
9 
9 
9 
9 
9 
9 
9 
9 
9 
9 
9 
9 
9 
9 
9 
9 
9 
9 
9 
9 
9 
9 
9 
9 
9 
9 
9 
9 
9 
9 
9 
9 
9 
9 
9 
9 
9 
9 
9 
9 
9 
9 
9 
9 
9 
9 
9 
9 
9 
POINT_DATA 36
SCALARS GMDS_ID int 1
LOOKUP_TABLE default
0 1 2 3 4 5 6 7 8 9 10 11 12 13 14 15 16 17 18 19 20 21 22 23 24 25 26 27 28 29 30 31 32 33 34 35 
SCALARS geom_link_dim int 1
LOOKUP_TABLE default
0 1 0 1 0 1 1 1 2 2 2 2 2 2 1 1 2 2 3 3 2 2 1 1 2 3 0 3 2 3 0 3 3 2 0 2 
SCALARS geom_link_id int 1
LOOKUP_TABLE default
-1 7 -1 30 -1 2 14 16 23 28 34 30 26 25 19 35 19 22 3 4 34 30 8 1 27 14 -1 2 24 5 -1 1 2 29 -1 17 


CELL_DATA 52
SCALARS GMDS_ID int 1
LOOKUP_TABLE default
0 1 2 6 9 10 12 17 18 19 20 21 24 25 27 31 32 33 34 36 37 38 39 40 41 42 43 44 45 46 47 48 49 50 51 52 53 54 55 56 57 58 59 60 61 62 63 64 65 66 67 68 

SCALARS geom_link_dim int 1
LOOKUP_TABLE default
0 0 0 0 0 0 0 0 0 0 0 0 0 0 0 0 0 0 0 0 0 0 0 0 0 0 0 0 0 0 0 0 0 0 0 0 0 0 0 0 0 0 0 0 0 0 0 0 0 0 0 0 

SCALARS geom_link_id int 1
LOOKUP_TABLE default
-1 -1 0 -1 0 -1 0 -1 -1 -1 0 0 0 0 0 0 0 0 0 -1 -1 -1 -1 -1 -1 -1 -1 -1 -1 -1 -1 -1 -1 -1 -1 -1 -1 -1 -1 -1 -1 -1 -1 -1 -1 -1 -1 -1 -1 -1 -1 -1 

