# vtk DataFile Version 3.0
Generated by GMDS VTK Writer

ASCII
DATASET UNSTRUCTURED_GRID
POINTS 32 float
0 0 0
0 10 0
10 10 0
10 0 0
0 0 10
0 10 10
10 10 10
10 0 10
0 1 0
0 1 10
10 1 10
10 1 0
0 0 4
10 0 4
10 1 4
0 1 4
10 10 4
0 10 4
0 3 0
10 3 0
10 3 4
0 3 4
10 3 10
0 3 10
0 0 5
10 0 5
10 1 5
0 1 5
0 10 5
10 10 5
10 3 5
0 3 5

CELLS 42 210
4 3 11 14 13 
4 1 17 21 18 
4 20 21 15 14 
4 0 3 13 12 
4 16 17 21 20 
4 19 20 14 11 
4 4 7 10 9 
4 4 9 27 24 
4 2 16 20 19 
4 18 19 11 8 
4 0 3 11 8 
4 27 26 14 15 
4 1 2 19 18 
4 8 11 14 15 
4 0 8 15 12 
4 12 13 14 15 
4 9 10 26 27 
4 25 26 14 13 
4 1 2 16 17 
4 7 10 26 25 
4 24 25 13 12 
4 4 7 25 24 
4 18 21 15 8 
4 18 19 20 21 
4 5 6 22 23 
4 23 22 10 9 
4 24 27 15 12 
4 24 25 26 27 
4 5 6 29 28 
4 28 29 16 17 
4 6 22 30 29 
4 29 30 20 16 
4 22 23 31 30 
4 30 31 21 20 
4 5 23 31 28 
4 28 31 21 17 
4 28 29 30 31 
4 10 22 30 26 
4 26 30 20 14 
4 9 23 31 27 
4 27 31 21 15 
4 31 30 26 27 

CELL_TYPES 42
9 
9 
9 
9 
9 
9 
9 
9 
9 
9 
9 
9 
9 
9 
9 
9 
9 
9 
9 
9 
9 
9 
9 
9 
9 
9 
9 
9 
9 
9 
9 
9 
9 
9 
9 
9 
9 
9 
9 
9 
9 
9 
POINT_DATA 32
SCALARS GMDS_ID int 1
LOOKUP_TABLE default
0 1 2 3 4 5 6 7 8 9 10 11 12 13 14 15 16 17 18 19 20 21 22 23 24 25 26 27 28 29 30 31 
SCALARS geom_link_dim int 1
LOOKUP_TABLE default
0 1 0 1 0 1 1 1 1 1 2 2 0 2 3 2 2 2 2 2 1 1 2 2 0 2 3 2 2 2 1 1 
SCALARS geom_link_id int 1
LOOKUP_TABLE default
-1 7 -1 30 -1 2 14 16 8 1 34 30 -1 27 2 17 29 24 23 30 37 10 34 28 -1 27 2 17 24 29 38 9 


CELL_DATA 42
SCALARS GMDS_ID int 1
LOOKUP_TABLE default
1 2 4 5 6 7 8 9 10 11 12 13 14 15 17 19 20 21 22 24 25 26 27 28 31 32 36 37 38 39 40 41 42 43 44 45 46 47 48 49 50 51 

SCALARS geom_link_dim int 1
LOOKUP_TABLE default
0 0 0 0 0 0 0 0 0 0 0 0 0 0 0 0 0 0 0 0 0 0 0 0 0 0 0 0 0 0 0 0 0 0 0 0 0 0 0 0 0 0 

SCALARS geom_link_id int 1
LOOKUP_TABLE default
0 0 0 0 0 0 0 -1 0 0 0 -1 0 0 0 0 -1 -1 0 -1 -1 -1 0 0 0 0 -1 -1 -1 -1 -1 -1 -1 -1 -1 -1 -1 -1 -1 -1 -1 -1 

