# vtk DataFile Version 3.0
Generated by GMDS VTK Writer

ASCII
DATASET UNSTRUCTURED_GRID
POINTS 24 float
0 0 0
0 10 0
10 10 0
10 0 0
0 0 10
0 10 10
10 10 10
10 0 10
0 1 0
0 1 10
10 1 10
10 1 0
0 0 4
10 0 4
10 1 4
0 1 4
10 10 4
0 10 4
0 3 0
10 3 0
10 3 4
0 3 4
10 3 10
0 3 10

CELLS 29 145
4 13 14 10 7 
4 3 11 14 13 
4 1 17 21 18 
4 12 13 7 4 
4 20 21 15 14 
4 0 3 13 12 
4 16 17 21 20 
4 19 20 14 11 
4 4 7 10 9 
4 2 16 20 19 
4 18 19 11 8 
4 0 3 11 8 
4 1 2 19 18 
4 8 11 14 15 
4 15 14 10 9 
4 0 8 15 12 
4 12 15 9 4 
4 12 13 14 15 
4 1 2 16 17 
4 17 16 6 5 
4 18 21 15 8 
4 18 19 20 21 
4 6 16 20 22 
4 22 20 14 10 
4 5 6 22 23 
4 23 22 10 9 
4 5 17 21 23 
4 23 21 15 9 
4 21 20 22 23 

CELL_TYPES 29
9 
9 
9 
9 
9 
9 
9 
9 
9 
9 
9 
9 
9 
9 
9 
9 
9 
9 
9 
9 
9 
9 
9 
9 
9 
9 
9 
9 
9 
POINT_DATA 24
SCALARS GMDS_ID int 1
LOOKUP_TABLE default
0 1 2 3 4 5 6 7 8 9 10 11 12 13 14 15 16 17 18 19 20 21 22 23 
SCALARS geom_link_dim int 1
LOOKUP_TABLE default
0 1 0 1 0 1 1 1 1 1 2 2 0 2 3 2 2 2 2 2 1 1 2 2 
SCALARS geom_link_id int 1
LOOKUP_TABLE default
-1 7 -1 30 -1 2 14 16 8 1 34 30 -1 27 2 17 29 24 23 30 37 10 34 28 


CELL_DATA 29
SCALARS GMDS_ID int 1
LOOKUP_TABLE default
0 1 2 3 4 5 6 7 8 10 11 12 14 15 16 17 18 19 22 23 27 28 29 30 31 32 33 34 35 

SCALARS geom_link_dim int 1
LOOKUP_TABLE default
0 0 0 0 0 0 0 0 0 0 0 0 0 0 0 0 0 0 0 0 0 0 0 0 0 0 0 0 0 

SCALARS geom_link_id int 1
LOOKUP_TABLE default
0 0 -1 0 -1 0 -1 -1 0 -1 -1 0 -1 0 0 0 0 0 0 0 -1 -1 -1 -1 -1 -1 -1 -1 -1 

