# vtk DataFile Version 3.0
Generated by GMDS VTK Writer

ASCII
DATASET UNSTRUCTURED_GRID
POINTS 24 float
0 0 0
0 5 0
10 5 0
10 0 0
0 0 15
0 5 15
10 5 15
10 0 15
0 0 5
10 0 5
10 5 5
0 5 5
0 0 10
10 0 10
10 5 10
0 5 10
5 0 0
5 5 0
5 5 5
5 0 5
5 5 10
5 0 10
5 5 15
5 0 15

CELLS 6 54
8 0 1 11 8 16 17 18 19 
8 16 17 18 19 3 2 10 9 
8 8 11 15 12 19 18 20 21 
8 19 18 20 21 9 10 14 13 
8 12 15 5 4 21 20 22 23 
8 21 20 22 23 13 14 6 7 

CELL_TYPES 6
12 
12 
12 
12 
12 
12 
POINT_DATA 24
SCALARS GMDS_ID int 1
LOOKUP_TABLE default
0 1 2 3 4 5 6 7 8 9 10 11 12 13 14 15 16 17 18 19 20 21 22 23 
SCALARS geom_link_dim int 1
LOOKUP_TABLE default
1 1 1 1 1 1 1 1 2 1 1 2 2 1 1 2 2 2 1 1 1 1 2 2 
SCALARS geom_link_id int 1
LOOKUP_TABLE default
1 3 16 5 2 4 11 6 4 10 15 10 4 7 12 10 11 8 14 9 13 8 16 5 


CELL_DATA 6
SCALARS GMDS_ID int 1
LOOKUP_TABLE default
2 4 5 6 7 8 

SCALARS is_in int 1
LOOKUP_TABLE default
1 1 1 0 1 1 

SCALARS geom_link_dim int 1
LOOKUP_TABLE default
0 0 0 0 0 0 

SCALARS geom_link_id int 1
LOOKUP_TABLE default
-1 -1 -1 -1 -1 -1 

