# vtk DataFile Version 3.0
Generated by GMDS VTK Writer

ASCII
DATASET UNSTRUCTURED_GRID
POINTS 22 float
0 0 0
0 5 0
0 0 15
0 5 15
10 5 15
10 0 15
5 5 0
5 0 0
5 0 15
5 5 15
10 5 5
10 0 5
5 0 5
5 5 5
0 0 5
0 5 5
10 5 10
10 0 10
5 0 10
5 5 10
0 0 10
0 5 10

CELLS 5 45
8 16 17 18 19 4 5 8 9 
8 10 11 12 13 16 17 18 19 
8 6 7 0 1 13 12 14 15 
8 13 12 14 15 19 18 20 21 
8 19 18 20 21 9 8 2 3 

CELL_TYPES 5
12 
12 
12 
12 
12 
POINT_DATA 22
SCALARS GMDS_ID int 1
LOOKUP_TABLE default
0 1 4 5 6 7 8 9 10 11 12 13 14 15 16 17 18 19 20 21 22 23 
SCALARS geom_link_dim_0 int 1
LOOKUP_TABLE default
0 0 0 0 0 0 0 0 0 0 0 0 0 0 0 0 0 0 0 0 0 0 
SCALARS geom_link_id_0 int 1
LOOKUP_TABLE default
0 0 0 0 0 0 0 0 0 0 0 0 0 0 0 0 0 0 0 0 0 0 


CELL_DATA 5
SCALARS GMDS_ID int 1
LOOKUP_TABLE default
1 2 4 6 7 

SCALARS geom_link_dim_0 int 1
LOOKUP_TABLE default
0 0 0 0 0 

SCALARS geom_link_id_0 int 1
LOOKUP_TABLE default
0 0 0 0 0 

