# vtk DataFile Version 3.0
Generated by GMDS VTK Writer

ASCII
DATASET UNSTRUCTURED_GRID
POINTS 12 float
0 0 0
0 5 0
10 5 0
10 0 0
0 0 15
0 5 15
10 5 15
10 0 15
5 5 0
5 0 0
5 0 15
5 5 15

CELLS 2 18
8 2 3 7 6 8 9 10 11 
8 8 9 10 11 1 0 4 5 

CELL_TYPES 2
12 
12 
POINT_DATA 12
SCALARS GMDS_ID int 1
LOOKUP_TABLE default
0 1 2 3 4 5 6 7 8 9 10 11 
SCALARS geom_link_dim_0 int 1
LOOKUP_TABLE default
0 0 0 0 0 0 0 0 0 0 0 0 
SCALARS geom_link_id_0 int 1
LOOKUP_TABLE default
0 0 0 0 0 0 0 0 0 0 0 0 


CELL_DATA 2
SCALARS GMDS_ID int 1
LOOKUP_TABLE default
1 2 

SCALARS geom_link_dim_0 int 1
LOOKUP_TABLE default
0 0 

SCALARS geom_link_id_0 int 1
LOOKUP_TABLE default
0 0 

