# vtk DataFile Version 3.0
Generated by GMDS VTK Writer

ASCII
DATASET UNSTRUCTURED_GRID
POINTS 24 float
0 0 0
0 5 0
10 5 0
10 0 0
0 0 15
0 5 15
10 5 15
10 0 15
0 0 10
10 0 10
10 5 10
0 5 10
5 5 0
5 0 0
5 0 10
5 5 10
5 0 15
5 5 15
5 5 5
5 0 5
0 0 5
0 5 5
10 5 5
10 0 5

CELLS 5 45
8 18 19 20 21 15 14 8 11 
8 12 13 0 1 18 19 20 21 
8 10 9 7 6 15 14 16 17 
8 15 14 16 17 11 8 4 5 
8 2 3 13 12 22 23 19 18 

CELL_TYPES 5
12 
12 
12 
12 
12 
POINT_DATA 24
SCALARS GMDS_ID int 1
LOOKUP_TABLE default
0 1 2 3 4 5 6 7 8 9 10 11 12 13 14 15 16 17 18 19 20 21 22 23 
SCALARS geom_link_dim_0 int 1
LOOKUP_TABLE default
0 0 0 0 0 0 0 0 0 0 0 0 0 0 0 0 0 0 0 0 0 0 0 0 
SCALARS geom_link_id_0 int 1
LOOKUP_TABLE default
0 0 0 0 0 0 0 0 0 0 0 0 0 0 0 0 0 0 0 0 0 0 0 0 


CELL_DATA 5
SCALARS GMDS_ID int 1
LOOKUP_TABLE default
1 2 4 5 6 

SCALARS geom_link_dim_0 int 1
LOOKUP_TABLE default
0 0 0 0 0 

SCALARS geom_link_id_0 int 1
LOOKUP_TABLE default
0 0 0 0 0 

