# vtk DataFile Version 3.0
Generated by GMDS VTK Writer

ASCII
DATASET UNSTRUCTURED_GRID
POINTS 24 float
0 0 0
0 5 0
10 5 0
10 0 0
0 0 15
0 5 15
10 5 15
10 0 15
5 5 0
5 0 0
5 0 15
5 5 15
10 5 5
10 0 5
5 0 5
5 5 5
0 0 5
0 5 5
10 5 10
10 0 10
5 0 10
5 5 10
0 0 10
0 5 10

CELLS 40 120
2 0 1
2 3 13
2 2 3
2 4 5
2 2 12
2 6 7
2 18 6
2 2 8
2 8 1
2 3 9
2 9 0
2 7 10
2 10 4
2 6 11
2 11 5
2 8 9
2 20 10
2 11 10
2 19 7
2 9 14
2 8 15
2 12 13
2 13 14
2 15 14
2 12 15
2 0 16
2 1 17
2 16 14
2 16 17
2 17 15
2 21 11
2 18 19
2 19 20
2 20 21
2 18 21
2 22 4
2 23 5
2 20 22
2 22 23
2 21 23

CELL_TYPES 40
3 
3 
3 
3 
3 
3 
3 
3 
3 
3 
3 
3 
3 
3 
3 
3 
3 
3 
3 
3 
3 
3 
3 
3 
3 
3 
3 
3 
3 
3 
3 
3 
3 
3 
3 
3 
3 
3 
3 
3 
POINT_DATA 24
SCALARS GMDS_ID int 1
LOOKUP_TABLE default
0 1 2 3 4 5 6 7 8 9 10 11 12 13 14 15 16 17 18 19 20 21 22 23 
SCALARS geom_link_dim int 1
LOOKUP_TABLE default
1 1 1 1 1 1 1 1 2 2 2 2 1 1 1 1 2 2 1 1 1 1 2 2 
SCALARS geom_link_id int 1
LOOKUP_TABLE default
1 3 16 5 2 4 11 6 8 11 5 16 15 10 9 14 4 10 12 7 8 13 4 10 


CELL_DATA 40
SCALARS GMDS_ID int 1
LOOKUP_TABLE default
0 1 2 3 4 5 6 8 9 10 11 12 13 14 15 16 17 18 19 20 21 22 23 24 25 26 27 28 29 30 32 33 34 35 36 38 40 41 42 43 

SCALARS geom_link_dim int 1
LOOKUP_TABLE default
2 2 2 2 2 2 2 2 2 2 2 2 2 2 2 0 0 0 2 0 0 2 2 2 2 0 0 0 0 0 0 2 2 2 2 0 0 0 0 0 

SCALARS geom_link_id int 1
LOOKUP_TABLE default
24 3 13 23 17 19 9 8 8 11 11 5 5 16 16 0 0 0 22 0 0 21 7 1 18 0 0 0 0 0 0 14 15 2 20 0 0 0 0 0 

