# vtk DataFile Version 3.0
Generated by GMDS VTK Writer

ASCII
DATASET UNSTRUCTURED_GRID
POINTS 24 float
0 0 0
0 5 0
10 5 0
10 0 0
0 0 15
0 5 15
10 5 15
10 0 15
0 0 5
10 0 5
10 5 5
0 5 5
0 0 10
10 0 10
10 5 10
0 5 10
5 0 0
5 5 0
5 5 5
5 0 5
5 5 10
5 0 10
5 5 15
5 0 15

CELLS 44 132
2 0 1
2 2 3
2 4 5
2 6 7
2 8 12
2 12 4
2 13 7
2 0 8
2 1 17
2 3 9
2 17 2
2 2 10
2 16 3
2 1 11
2 0 16
2 10 9
2 8 11
2 14 6
2 11 15
2 15 5
2 13 14
2 12 15
2 11 18
2 18 10
2 8 19
2 19 9
2 16 17
2 17 18
2 19 18
2 16 19
2 15 20
2 20 14
2 12 21
2 21 13
2 18 20
2 21 20
2 19 21
2 5 22
2 22 6
2 4 23
2 23 7
2 22 20
2 23 22
2 23 21

CELL_TYPES 44
3 
3 
3 
3 
3 
3 
3 
3 
3 
3 
3 
3 
3 
3 
3 
3 
3 
3 
3 
3 
3 
3 
3 
3 
3 
3 
3 
3 
3 
3 
3 
3 
3 
3 
3 
3 
3 
3 
3 
3 
3 
3 
3 
3 
POINT_DATA 24
SCALARS GMDS_ID int 1
LOOKUP_TABLE default
0 1 2 3 4 5 6 7 8 9 10 11 12 13 14 15 16 17 18 19 20 21 22 23 
SCALARS geom_link_dim int 1
LOOKUP_TABLE default
1 1 1 1 1 1 1 1 2 1 1 2 2 1 1 2 2 2 1 1 1 1 2 2 
SCALARS geom_link_id int 1
LOOKUP_TABLE default
1 3 16 5 2 4 11 6 4 10 15 10 4 7 12 10 11 8 14 9 13 8 16 5 


CELL_DATA 44
SCALARS GMDS_ID int 1
LOOKUP_TABLE default
0 2 4 6 9 10 11 12 13 14 15 16 17 18 19 21 23 25 26 27 29 31 32 33 34 35 36 37 38 39 40 41 42 43 44 45 46 47 48 49 50 51 52 53 

SCALARS geom_link_dim int 1
LOOKUP_TABLE default
2 2 2 2 2 2 2 2 2 2 2 2 2 2 2 2 3 2 2 2 2 3 3 2 3 2 3 3 2 3 3 2 3 2 2 2 2 2 2 2 2 3 3 3 

SCALARS geom_link_id int 1
LOOKUP_TABLE default
24 13 23 19 4 4 22 4 8 3 8 17 11 10 11 21 1 9 10 10 14 5 1 18 1 7 3 2 1 1 2 20 1 15 12 2 6 16 16 5 5 2 7 1 

