# vtk DataFile Version 3.0
Generated by GMDS VTK Writer

ASCII
DATASET UNSTRUCTURED_GRID
POINTS 24 float
0 0 0
0 5 0
10 5 0
10 0 0
0 0 15
0 5 15
10 5 15
10 0 15
0 0 10
10 0 10
10 5 10
0 5 10
5 5 0
5 0 0
5 0 10
5 5 10
5 0 15
5 5 15
5 5 5
5 0 5
0 0 5
0 5 5
10 5 5
10 0 5

CELLS 44 132
2 0 1
2 0 20
2 2 3
2 20 8
2 4 5
2 18 15
2 6 7
2 12 18
2 3 13
2 2 12
2 12 1
2 13 0
2 8 4
2 9 7
2 10 6
2 11 5
2 19 14
2 10 9
2 13 19
2 8 11
2 9 14
2 14 8
2 10 15
2 15 11
2 12 13
2 14 15
2 7 16
2 16 4
2 6 17
2 17 5
2 16 14
2 17 16
2 17 15
2 1 21
2 21 11
2 18 19
2 20 19
2 20 21
2 21 18
2 2 22
2 3 23
2 22 23
2 23 19
2 22 18

CELL_TYPES 44
3 
3 
3 
3 
3 
3 
3 
3 
3 
3 
3 
3 
3 
3 
3 
3 
3 
3 
3 
3 
3 
3 
3 
3 
3 
3 
3 
3 
3 
3 
3 
3 
3 
3 
3 
3 
3 
3 
3 
3 
3 
3 
3 
3 
POINT_DATA 24
SCALARS GMDS_ID int 1
LOOKUP_TABLE default
0 1 2 3 4 5 6 7 8 9 10 11 12 13 14 15 16 17 18 19 20 21 22 23 
SCALARS geom_link_dim int 1
LOOKUP_TABLE default
1 1 1 1 1 1 1 1 2 1 1 2 2 2 1 1 2 2 1 1 2 2 1 1 
SCALARS geom_link_id int 1
LOOKUP_TABLE default
1 3 16 5 2 4 11 6 4 7 12 10 8 11 8 13 5 16 14 9 4 10 15 10 


CELL_DATA 44
SCALARS GMDS_ID int 1
LOOKUP_TABLE default
0 1 2 3 4 5 6 7 8 9 10 11 13 15 17 19 20 21 22 23 24 25 26 27 28 30 32 33 34 35 36 37 38 39 40 41 42 43 44 45 47 49 50 51 

SCALARS geom_link_dim int 1
LOOKUP_TABLE default
2 2 2 2 2 2 2 3 2 2 2 2 2 2 2 2 2 2 3 3 2 3 2 3 3 2 2 2 2 2 3 3 3 2 2 2 3 3 3 2 2 2 2 2 

SCALARS geom_link_id int 1
LOOKUP_TABLE default
24 4 13 4 23 12 19 2 11 8 8 11 4 22 9 10 6 14 1 5 15 1 20 2 3 2 5 5 16 16 1 7 2 10 10 1 1 5 2 17 3 21 7 18 

