# vtk DataFile Version 3.0
Generated by GMDS VTK Writer

ASCII
DATASET UNSTRUCTURED_GRID
POINTS 16 float
0 0 0
0 5 0
10 5 0
10 0 0
0 0 15
0 5 15
10 5 15
10 0 15
0 0 5
10 0 5
10 5 5
0 5 5
0 0 10
10 0 10
10 5 10
0 5 10

CELLS 28 84
2 0 1
2 1 2
2 2 3
2 3 0
2 4 5
2 5 6
2 6 7
2 7 4
2 9 13
2 8 12
2 12 4
2 13 7
2 0 8
2 3 9
2 2 10
2 1 11
2 8 9
2 10 9
2 11 10
2 8 11
2 10 14
2 14 6
2 11 15
2 15 5
2 12 13
2 13 14
2 14 15
2 12 15

CELL_TYPES 28
3 
3 
3 
3 
3 
3 
3 
3 
3 
3 
3 
3 
3 
3 
3 
3 
3 
3 
3 
3 
3 
3 
3 
3 
3 
3 
3 
3 
POINT_DATA 16
SCALARS GMDS_ID int 1
LOOKUP_TABLE default
0 1 2 3 4 5 6 7 8 9 10 11 12 13 14 15 
SCALARS geom_link_dim int 1
LOOKUP_TABLE default
1 1 1 1 1 1 1 1 2 1 1 2 2 1 1 2 
SCALARS geom_link_id int 1
LOOKUP_TABLE default
1 3 16 5 2 4 11 6 4 10 15 10 4 7 12 10 


CELL_DATA 28
SCALARS GMDS_ID int 1
LOOKUP_TABLE default
0 1 2 3 4 5 6 7 8 9 10 11 12 14 16 18 20 21 22 23 24 25 26 27 28 29 30 31 

SCALARS geom_link_dim int 1
LOOKUP_TABLE default
2 2 2 2 2 2 2 2 0 2 2 2 2 2 2 2 0 2 0 0 0 2 2 2 0 2 0 0 

SCALARS geom_link_id int 1
LOOKUP_TABLE default
24 8 13 11 23 16 19 5 -1 4 4 22 4 3 17 10 0 21 0 0 -1 9 10 10 -1 14 -1 -1 

