# vtk DataFile Version 3.0
Generated by GMDS VTK Writer

ASCII
DATASET UNSTRUCTURED_GRID
POINTS 24 float
0 0 0
0 5 0
10 5 0
10 0 0
0 0 15
0 5 15
10 5 15
10 0 15
0 0 5
10 0 5
10 5 5
0 5 5
5 0 0
5 5 0
5 5 5
5 0 5
5 5 15
5 0 15
0 0 10
0 5 10
5 5 10
5 0 10
10 5 10
10 0 10

CELLS 44 132
2 0 1
2 5 19
2 2 3
2 16 20
2 4 5
2 4 18
2 6 7
2 18 8
2 1 13
2 0 12
2 12 3
2 13 2
2 0 8
2 3 9
2 2 10
2 1 11
2 20 14
2 10 9
2 19 11
2 8 11
2 11 14
2 14 10
2 8 15
2 15 9
2 12 13
2 13 14
2 15 14
2 12 15
2 5 16
2 16 6
2 4 17
2 17 7
2 17 16
2 17 21
2 21 15
2 18 19
2 19 20
2 20 21
2 18 21
2 6 22
2 7 23
2 22 20
2 22 23
2 23 21

CELL_TYPES 44
3 
3 
3 
3 
3 
3 
3 
3 
3 
3 
3 
3 
3 
3 
3 
3 
3 
3 
3 
3 
3 
3 
3 
3 
3 
3 
3 
3 
3 
3 
3 
3 
3 
3 
3 
3 
3 
3 
3 
3 
3 
3 
3 
3 
POINT_DATA 24
SCALARS GMDS_ID int 1
LOOKUP_TABLE default
0 1 2 3 4 5 6 7 8 9 10 11 12 13 14 15 16 17 18 19 20 21 22 23 
SCALARS geom_link_dim_0 int 1
LOOKUP_TABLE default
0 0 0 0 0 0 0 0 0 0 0 0 0 0 0 0 0 0 0 0 0 0 0 0 
SCALARS geom_link_id_0 int 1
LOOKUP_TABLE default
0 0 0 0 0 0 0 0 0 0 0 0 0 0 0 0 0 0 0 0 0 0 0 0 


CELL_DATA 44
SCALARS GMDS_ID int 1
LOOKUP_TABLE default
0 1 2 3 4 5 6 7 8 9 10 11 12 14 16 18 20 21 22 23 24 25 26 27 28 29 30 31 32 33 34 35 37 39 40 41 42 43 44 45 47 49 50 51 

SCALARS geom_link_dim_0 int 1
LOOKUP_TABLE default
0 0 0 0 0 0 0 0 0 0 0 0 0 0 0 0 0 0 0 0 0 0 0 0 0 0 0 0 0 0 0 0 0 0 0 0 0 0 0 0 0 0 0 0 

SCALARS geom_link_id_0 int 1
LOOKUP_TABLE default
0 0 0 0 0 0 0 0 0 0 0 0 0 0 0 0 0 0 0 0 0 0 0 0 0 0 0 0 0 0 0 0 0 0 0 0 0 0 0 0 0 0 0 0 

