# vtk DataFile Version 3.0
Generated by GMDS VTK Writer

ASCII
DATASET UNSTRUCTURED_GRID
POINTS 12 float
0 0 0
0 5 0
10 5 0
10 0 0
0 0 15
0 5 15
10 5 15
10 0 15
5 5 0
5 0 0
5 0 15
5 5 15

CELLS 20 60
2 0 1
2 2 3
2 4 5
2 6 7
2 0 4
2 1 5
2 2 6
2 3 7
2 2 8
2 8 1
2 3 9
2 9 0
2 7 10
2 10 4
2 6 11
2 11 5
2 8 9
2 9 10
2 11 10
2 8 11

CELL_TYPES 20
3 
3 
3 
3 
3 
3 
3 
3 
3 
3 
3 
3 
3 
3 
3 
3 
3 
3 
3 
3 
POINT_DATA 12
SCALARS GMDS_ID int 1
LOOKUP_TABLE default
0 1 2 3 4 5 6 7 8 9 10 11 
SCALARS geom_link_dim int 1
LOOKUP_TABLE default
1 1 1 1 1 1 1 1 2 2 2 2 
SCALARS geom_link_id int 1
LOOKUP_TABLE default
1 3 16 5 2 4 11 6 8 11 5 16 


CELL_DATA 20
SCALARS GMDS_ID int 1
LOOKUP_TABLE default
0 2 4 6 8 9 10 11 12 13 14 15 16 17 18 19 20 21 22 23 

SCALARS geom_link_dim int 1
LOOKUP_TABLE default
2 2 2 2 2 2 0 0 2 2 2 2 2 2 2 2 0 0 0 0 

SCALARS geom_link_id int 1
LOOKUP_TABLE default
24 13 23 19 4 10 0 0 8 8 11 11 5 5 16 16 -1 -1 -1 -1 

