# vtk DataFile Version 3.0
Generated by GMDS VTK Writer

ASCII
DATASET UNSTRUCTURED_GRID
POINTS 18 float
0 0 0
0 5 0
10 5 0
10 0 0
0 0 15
0 5 15
10 5 15
10 0 15
0 0 10
10 0 10
10 5 10
0 5 10
5 5 0
5 0 0
5 0 10
5 5 10
5 0 15
5 5 15

CELLS 33 99
2 0 1
2 2 3
2 4 5
2 6 7
2 3 13
2 2 12
2 12 1
2 13 0
2 0 8
2 8 4
2 3 9
2 9 7
2 2 10
2 10 6
2 1 11
2 11 5
2 10 9
2 8 11
2 9 14
2 14 8
2 10 15
2 15 11
2 12 13
2 13 14
2 14 15
2 12 15
2 7 16
2 16 4
2 6 17
2 17 5
2 16 14
2 17 16
2 17 15

CELL_TYPES 33
3 
3 
3 
3 
3 
3 
3 
3 
3 
3 
3 
3 
3 
3 
3 
3 
3 
3 
3 
3 
3 
3 
3 
3 
3 
3 
3 
3 
3 
3 
3 
3 
3 
POINT_DATA 18
SCALARS GMDS_ID int 1
LOOKUP_TABLE default
0 1 2 3 4 5 6 7 8 9 10 11 12 13 14 15 16 17 
SCALARS geom_link_dim int 1
LOOKUP_TABLE default
1 1 1 1 1 1 1 1 2 1 1 2 2 2 1 1 2 2 
SCALARS geom_link_id int 1
LOOKUP_TABLE default
1 3 16 5 2 4 11 6 4 7 12 10 8 11 8 13 5 16 


CELL_DATA 33
SCALARS GMDS_ID int 1
LOOKUP_TABLE default
0 2 4 6 8 9 10 11 12 13 14 15 16 17 18 19 21 23 24 25 26 27 28 29 30 31 32 33 34 35 36 37 38 

SCALARS geom_link_dim int 1
LOOKUP_TABLE default
2 2 2 2 2 2 2 2 2 2 0 2 0 2 2 2 2 0 2 0 2 0 0 0 0 0 2 2 2 2 0 0 0 

SCALARS geom_link_id int 1
LOOKUP_TABLE default
24 13 23 19 11 8 8 11 4 4 0 22 0 9 10 10 14 0 15 -1 20 -1 -1 -1 -1 -1 5 5 16 16 -1 -1 -1 

