# vtk DataFile Version 3.0
Generated by GMDS VTK Writer

ASCII
DATASET UNSTRUCTURED_GRID
POINTS 24 float
0 0 0
0 5 0
10 5 0
10 0 0
0 0 15
0 5 15
10 5 15
10 0 15
0 0 5
10 0 5
10 5 5
0 5 5
5 0 0
5 5 0
5 5 5
5 0 5
5 5 15
5 0 15
0 0 10
0 5 10
5 5 10
5 0 10
10 5 10
10 0 10

CELLS 29 145
4 4 17 21 18 
4 13 14 10 2 
4 1 11 14 13 
4 12 13 2 3 
4 0 1 13 12 
4 20 21 15 14 
4 16 17 21 20 
4 19 20 14 11 
4 2 3 9 10 
4 5 16 20 19 
4 18 19 11 8 
4 0 1 11 8 
4 4 5 19 18 
4 8 11 14 15 
4 15 14 10 9 
4 0 8 15 12 
4 12 15 9 3 
4 12 13 14 15 
4 4 5 16 17 
4 17 16 6 7 
4 18 21 15 8 
4 18 19 20 21 
4 6 16 20 22 
4 22 20 14 10 
4 6 7 23 22 
4 22 23 9 10 
4 7 17 21 23 
4 23 21 15 9 
4 21 20 22 23 

CELL_TYPES 29
9 
9 
9 
9 
9 
9 
9 
9 
9 
9 
9 
9 
9 
9 
9 
9 
9 
9 
9 
9 
9 
9 
9 
9 
9 
9 
9 
9 
9 
POINT_DATA 24
SCALARS GMDS_ID int 1
LOOKUP_TABLE default
0 1 2 3 4 5 6 7 8 9 10 11 12 13 14 15 16 17 18 19 20 21 22 23 
SCALARS geom_link_dim_0 int 1
LOOKUP_TABLE default
0 0 0 0 0 0 0 0 0 0 0 0 0 0 0 0 0 0 0 0 0 0 0 0 
SCALARS geom_link_id_0 int 1
LOOKUP_TABLE default
0 0 0 0 0 0 0 0 0 0 0 0 0 0 0 0 0 0 0 0 0 0 0 0 


CELL_DATA 29
SCALARS GMDS_ID int 1
LOOKUP_TABLE default
0 1 2 3 4 5 6 7 8 10 11 12 14 15 16 17 18 19 22 23 27 28 29 30 31 32 33 34 35 

SCALARS geom_link_dim_0 int 1
LOOKUP_TABLE default
0 0 0 0 0 0 0 0 0 0 0 0 0 0 0 0 0 0 0 0 0 0 0 0 0 0 0 0 0 

SCALARS geom_link_id_0 int 1
LOOKUP_TABLE default
0 0 0 0 0 0 0 0 0 0 0 0 0 0 0 0 0 0 0 0 0 0 0 0 0 0 0 0 0 

