# vtk DataFile Version 3.0
Generated by GMDS VTK Writer

ASCII
DATASET UNSTRUCTURED_GRID
POINTS 16 float
0 0 0
0 5 0
10 5 0
10 0 0
0 0 15
0 5 15
10 5 15
10 0 15
0 0 5
10 0 5
10 5 5
0 5 5
0 0 10
10 0 10
10 5 10
0 5 10

CELLS 16 80
4 0 3 2 1 
4 13 14 6 7 
4 9 10 14 13 
4 12 13 7 4 
4 8 9 13 12 
4 4 5 6 7 
4 0 3 9 8 
4 2 3 9 10 
4 1 2 10 11 
4 0 1 11 8 
4 8 9 10 11 
4 10 11 15 14 
4 14 15 5 6 
4 8 11 15 12 
4 12 15 5 4 
4 12 13 14 15 

CELL_TYPES 16
9 
9 
9 
9 
9 
9 
9 
9 
9 
9 
9 
9 
9 
9 
9 
9 
POINT_DATA 16
SCALARS GMDS_ID int 1
LOOKUP_TABLE default
0 1 2 3 4 5 6 7 8 9 10 11 12 13 14 15 
SCALARS geom_link_dim int 1
LOOKUP_TABLE default
1 1 1 1 1 1 1 1 2 1 1 2 2 1 1 2 
SCALARS geom_link_id int 1
LOOKUP_TABLE default
1 3 16 5 2 4 11 6 4 10 15 10 4 7 12 10 


CELL_DATA 16
SCALARS GMDS_ID int 1
LOOKUP_TABLE default
0 1 2 3 4 5 6 8 10 12 14 15 16 17 18 19 

SCALARS geom_link_dim int 1
LOOKUP_TABLE default
0 0 0 0 0 0 0 0 0 0 0 0 0 0 0 0 

SCALARS geom_link_id int 1
LOOKUP_TABLE default
0 -1 -1 -1 -1 0 0 0 0 0 0 -1 -1 -1 -1 -1 

