# vtk DataFile Version 3.0
Generated by GMDS VTK Writer

ASCII
DATASET UNSTRUCTURED_GRID
POINTS 24 float
0 0 0
0 5 0
10 5 0
10 0 0
0 0 15
0 5 15
10 5 15
10 0 15
5 5 0
5 0 0
5 0 15
5 5 15
10 5 5
10 0 5
5 0 5
5 5 5
0 0 5
0 5 5
10 5 10
10 0 10
5 0 10
5 5 10
0 0 10
0 5 10

CELLS 26 130
4 3 9 14 13 
4 20 21 11 10 
4 2 3 13 12 
4 2 3 9 8 
4 8 9 0 1 
4 14 15 21 20 
4 19 20 10 7 
4 6 7 10 11 
4 11 10 4 5 
4 18 19 7 6 
4 8 9 14 15 
4 2 8 15 12 
4 12 13 14 15 
4 0 9 14 16 
4 0 1 17 16 
4 1 8 15 17 
4 15 14 16 17 
4 18 21 11 6 
4 18 19 20 21 
4 14 16 22 20 
4 20 22 4 10 
4 16 17 23 22 
4 22 23 5 4 
4 15 17 23 21 
4 21 23 5 11 
4 21 20 22 23 

CELL_TYPES 26
9 
9 
9 
9 
9 
9 
9 
9 
9 
9 
9 
9 
9 
9 
9 
9 
9 
9 
9 
9 
9 
9 
9 
9 
9 
9 
POINT_DATA 24
SCALARS GMDS_ID int 1
LOOKUP_TABLE default
0 1 2 3 4 5 6 7 8 9 10 11 12 13 14 15 16 17 18 19 20 21 22 23 
SCALARS geom_link_dim int 1
LOOKUP_TABLE default
1 1 1 1 1 1 1 1 2 2 2 2 1 1 1 1 2 2 1 1 1 1 2 2 
SCALARS geom_link_id int 1
LOOKUP_TABLE default
1 3 16 5 2 4 11 6 8 11 5 16 15 10 9 14 4 10 12 7 8 13 4 10 


CELL_DATA 26
SCALARS GMDS_ID int 1
LOOKUP_TABLE default
2 3 5 6 7 8 9 10 11 13 15 17 19 20 22 24 26 27 28 29 30 31 32 33 34 35 

SCALARS geom_link_dim int 1
LOOKUP_TABLE default
0 0 0 0 0 0 0 0 0 0 0 0 0 0 0 0 0 0 0 0 0 0 0 0 0 0 

SCALARS geom_link_id int 1
LOOKUP_TABLE default
0 0 0 0 0 0 0 0 0 0 0 0 0 0 0 0 0 0 0 0 0 0 0 0 0 0 

