# vtk DataFile Version 3.0
Generated by GMDS VTK Writer

ASCII
DATASET UNSTRUCTURED_GRID
POINTS 24 float
0 0 0
0 5 0
10 5 0
10 0 0
0 0 15
0 5 15
10 5 15
10 0 15
0 0 10
10 0 10
10 5 10
0 5 10
5 5 0
5 0 0
5 0 10
5 5 10
5 0 15
5 5 15
5 5 5
5 0 5
0 0 5
0 5 5
10 5 5
10 0 5

CELLS 26 130
4 1 12 18 21 
4 12 13 0 1 
4 2 3 13 12 
4 20 21 11 8 
4 0 1 21 20 
4 20 19 14 8 
4 10 9 7 6 
4 0 13 19 20 
4 18 19 14 15 
4 8 11 5 4 
4 12 13 19 18 
4 9 10 15 14 
4 14 15 11 8 
4 7 9 14 16 
4 16 14 8 4 
4 6 7 16 17 
4 17 16 4 5 
4 6 10 15 17 
4 17 15 11 5 
4 15 14 16 17 
4 21 18 15 11 
4 18 19 20 21 
4 2 3 23 22 
4 3 13 19 23 
4 2 12 18 22 
4 22 23 19 18 

CELL_TYPES 26
9 
9 
9 
9 
9 
9 
9 
9 
9 
9 
9 
9 
9 
9 
9 
9 
9 
9 
9 
9 
9 
9 
9 
9 
9 
9 
POINT_DATA 24
SCALARS GMDS_ID int 1
LOOKUP_TABLE default
0 1 2 3 4 5 6 7 8 9 10 11 12 13 14 15 16 17 18 19 20 21 22 23 
SCALARS geom_link_dim_0 int 1
LOOKUP_TABLE default
0 0 0 0 0 0 0 0 0 0 0 0 0 0 0 0 0 0 0 0 0 0 0 0 
SCALARS geom_link_id_0 int 1
LOOKUP_TABLE default
0 0 0 0 0 0 0 0 0 0 0 0 0 0 0 0 0 0 0 0 0 0 0 0 


CELL_DATA 26
SCALARS GMDS_ID int 1
LOOKUP_TABLE default
0 3 4 5 6 7 9 10 11 13 14 15 16 20 21 22 23 24 25 26 27 28 29 31 33 35 

SCALARS geom_link_dim_0 int 1
LOOKUP_TABLE default
0 0 0 0 0 0 0 0 0 0 0 0 0 0 0 0 0 0 0 0 0 0 0 0 0 0 

SCALARS geom_link_id_0 int 1
LOOKUP_TABLE default
0 0 0 0 0 0 0 0 0 0 0 0 0 0 0 0 0 0 0 0 0 0 0 0 0 0 

