# vtk DataFile Version 3.0
Generated by GMDS VTK Writer

ASCII
DATASET UNSTRUCTURED_GRID
POINTS 24 float
0 0 0
0 5 0
10 5 0
10 0 0
0 0 15
0 5 15
10 5 15
10 0 15
0 0 5
10 0 5
10 5 5
0 5 5
0 0 10
10 0 10
10 5 10
0 5 10
5 0 0
5 5 0
5 5 5
5 0 5
5 5 10
5 0 10
5 5 15
5 0 15

CELLS 26 130
4 13 14 6 7 
4 17 18 10 2 
4 2 3 9 10 
4 1 11 18 17 
4 16 17 2 3 
4 0 1 11 8 
4 0 1 17 16 
4 8 11 15 12 
4 12 15 5 4 
4 8 11 18 19 
4 19 18 10 9 
4 0 8 19 16 
4 16 19 9 3 
4 16 17 18 19 
4 11 15 20 18 
4 12 15 20 21 
4 21 20 14 13 
4 8 12 21 19 
4 19 18 20 21 
4 5 15 20 22 
4 22 20 14 6 
4 4 5 22 23 
4 23 22 6 7 
4 4 12 21 23 
4 23 21 13 7 
4 21 20 22 23 

CELL_TYPES 26
9 
9 
9 
9 
9 
9 
9 
9 
9 
9 
9 
9 
9 
9 
9 
9 
9 
9 
9 
9 
9 
9 
9 
9 
9 
9 
POINT_DATA 24
SCALARS GMDS_ID int 1
LOOKUP_TABLE default
0 1 2 3 4 5 6 7 8 9 10 11 12 13 14 15 16 17 18 19 20 21 22 23 
SCALARS geom_link_dim int 1
LOOKUP_TABLE default
1 1 1 1 1 1 1 1 2 1 1 2 2 1 1 2 2 2 1 1 1 1 2 2 
SCALARS geom_link_id int 1
LOOKUP_TABLE default
1 3 16 5 2 4 11 6 4 10 15 10 4 7 12 10 11 8 14 9 13 8 16 5 


CELL_DATA 26
SCALARS GMDS_ID int 1
LOOKUP_TABLE default
1 7 8 9 11 12 13 17 18 20 21 22 23 24 25 27 28 29 31 32 33 34 35 36 37 38 

SCALARS geom_link_dim int 1
LOOKUP_TABLE default
3 3 3 3 3 3 3 3 3 4 3 3 3 4 3 4 3 3 3 3 3 3 3 3 3 4 

SCALARS geom_link_id int 1
LOOKUP_TABLE default
10 2 6 2 3 5 3 5 5 1 9 1 1 1 2 1 4 1 8 2 2 7 7 1 1 1 

