# vtk DataFile Version 3.0
Generated by GMDS VTK Writer

ASCII
DATASET UNSTRUCTURED_GRID
POINTS 18 float
0 0 0
0 5 0
10 5 0
10 0 0
0 0 15
0 5 15
10 5 15
10 0 15
0 0 10
10 0 10
10 5 10
0 5 10
5 5 0
5 0 0
5 0 10
5 5 10
5 0 15
5 5 15

CELLS 20 100
4 13 14 8 0 
4 3 9 14 13 
4 12 13 0 1 
4 2 3 13 12 
4 2 3 9 10 
4 10 9 7 6 
4 0 1 11 8 
4 8 11 5 4 
4 9 10 15 14 
4 14 15 11 8 
4 2 10 15 12 
4 12 15 11 1 
4 12 13 14 15 
4 7 9 14 16 
4 16 14 8 4 
4 6 7 16 17 
4 17 16 4 5 
4 6 10 15 17 
4 17 15 11 5 
4 15 14 16 17 

CELL_TYPES 20
9 
9 
9 
9 
9 
9 
9 
9 
9 
9 
9 
9 
9 
9 
9 
9 
9 
9 
9 
9 
POINT_DATA 18
SCALARS GMDS_ID int 1
LOOKUP_TABLE default
0 1 2 3 4 5 6 7 8 9 10 11 12 13 14 15 16 17 
SCALARS geom_link_dim_0 int 1
LOOKUP_TABLE default
0 0 0 0 0 0 0 0 0 0 0 0 0 0 0 0 0 0 
SCALARS geom_link_id_0 int 1
LOOKUP_TABLE default
0 0 0 0 0 0 0 0 0 0 0 0 0 0 0 0 0 0 


CELL_DATA 20
SCALARS GMDS_ID int 1
LOOKUP_TABLE default
1 2 3 4 8 9 12 13 15 16 17 18 19 20 21 22 23 24 25 26 

SCALARS geom_link_dim_0 int 1
LOOKUP_TABLE default
0 0 0 0 0 0 0 0 0 0 0 0 0 0 0 0 0 0 0 0 

SCALARS geom_link_id_0 int 1
LOOKUP_TABLE default
0 0 0 0 0 0 0 0 0 0 0 0 0 0 0 0 0 0 0 0 

