# vtk DataFile Version 3.0
Generated by GMDS VTK Writer

ASCII
DATASET UNSTRUCTURED_GRID
POINTS 26 float
0 2 0
2 2 0
2 0 0
0 0 2
0 2 2
2 2 2
2 0 2
0 0 1
2 0 1
2 2 1
0 2 1
0 1 0
2 1 0
2 1 1
0 1 1
2 1 2
0 1 2
1 1 0
1 1 1
1 2 1
1 2 0
1 0 0
1 0 1
1 0 2
1 1 2
1 2 2

CELLS 7 63
8 17 18 19 20 11 14 10 0 
8 12 13 9 1 17 18 19 20 
8 2 8 13 12 21 22 18 17 
8 6 8 13 15 23 22 18 24 
8 23 22 18 24 3 7 14 16 
8 15 13 9 5 24 18 19 25 
8 24 18 19 25 16 14 10 4 

CELL_TYPES 7
12 
12 
12 
12 
12 
12 
12 
POINT_DATA 26
SCALARS GMDS_ID int 1
LOOKUP_TABLE default
1 2 3 4 5 6 7 8 9 10 11 12 13 14 15 16 17 18 19 20 21 22 23 24 25 26 
SCALARS geom_link_dim int 1
LOOKUP_TABLE default
1 1 1 1 1 1 1 1 2 2 2 1 2 3 1 2 2 1 1 3 2 1 1 2 3 2 
SCALARS geom_link_id int 1
LOOKUP_TABLE default
10 14 11 8 9 13 12 1 21 12 15 3 6 5 2 20 11 7 6 1 16 5 4 5 2 9 


CELL_DATA 7
SCALARS GMDS_ID int 1
LOOKUP_TABLE default
1 2 6 8 9 10 11 

SCALARS is_in int 1
LOOKUP_TABLE default
1 1 1 1 1 1 1 

SCALARS geom_link_dim int 1
LOOKUP_TABLE default
4 4 4 4 4 4 4 

SCALARS geom_link_id int 1
LOOKUP_TABLE default
1 1 1 1 1 1 1 

