# vtk DataFile Version 3.0
Generated by GMDS VTK Writer

ASCII
DATASET UNSTRUCTURED_GRID
POINTS 18 float
0 0 0
0 2 0
2 2 0
2 0 0
0 0 2
0 2 2
2 2 2
2 0 2
0 0 1
2 0 1
2 2 1
0 2 1
0 1 0
2 1 0
2 1 1
0 1 1
2 1 2
0 1 2

CELLS 33 99
2 1 2
2 3 0
2 5 6
2 7 4
2 13 2
2 3 13
2 0 12
2 12 1
2 0 8
2 8 4
2 3 9
2 9 7
2 2 10
2 10 6
2 1 11
2 11 5
2 8 9
2 11 10
2 9 14
2 14 10
2 8 15
2 15 11
2 12 13
2 13 14
2 15 14
2 12 15
2 7 16
2 16 6
2 4 17
2 17 5
2 16 14
2 17 16
2 17 15

CELL_TYPES 33
3 
3 
3 
3 
3 
3 
3 
3 
3 
3 
3 
3 
3 
3 
3 
3 
3 
3 
3 
3 
3 
3 
3 
3 
3 
3 
3 
3 
3 
3 
3 
3 
3 
POINT_DATA 18
SCALARS GMDS_ID int 1
LOOKUP_TABLE default
0 1 2 3 4 5 6 7 8 9 10 11 12 13 14 15 16 17 
SCALARS geom_link_dim int 1
LOOKUP_TABLE default
0 1 1 1 1 1 1 1 1 2 2 2 1 2 3 1 2 2 
SCALARS geom_link_id int 1
LOOKUP_TABLE default
-1 10 14 11 8 9 13 12 1 21 12 15 3 6 5 2 20 11 


CELL_DATA 33
SCALARS GMDS_ID int 1
LOOKUP_TABLE default
1 3 5 7 8 9 10 11 12 13 14 15 16 17 18 19 20 22 24 25 26 27 28 29 30 31 32 33 34 35 36 37 38 

SCALARS geom_link_dim int 1
LOOKUP_TABLE default
2 0 2 2 2 2 0 2 0 2 2 2 2 2 2 2 0 0 0 0 2 0 0 0 0 2 2 2 2 2 0 0 0 

SCALARS geom_link_id int 1
LOOKUP_TABLE default
16 0 9 5 6 6 -1 13 0 18 21 21 12 12 15 15 0 0 -1 -1 10 -1 -1 -1 -1 19 20 20 11 11 -1 -1 -1 

