# vtk DataFile Version 3.0
Generated by GMDS VTK Writer

ASCII
DATASET UNSTRUCTURED_GRID
POINTS 27 float
0 0 0
0 2 0
2 2 0
2 0 0
0 0 2
0 2 2
2 2 2
2 0 2
0 0 1
2 0 1
2 2 1
0 2 1
0 1 0
2 1 0
2 1 1
0 1 1
2 1 2
0 1 2
1 1 0
1 1 1
1 2 1
1 2 0
1 0 0
1 0 1
1 0 2
1 1 2
1 2 2

CELLS 54 162
2 20 11
2 10 20
2 13 18
2 18 12
2 13 2
2 3 13
2 0 12
2 12 1
2 0 8
2 8 4
2 3 9
2 9 7
2 2 10
2 10 6
2 1 11
2 11 5
2 14 19
2 19 15
2 9 14
2 14 10
2 8 15
2 15 11
2 13 14
2 12 15
2 7 16
2 16 6
2 4 17
2 17 5
2 16 14
2 17 15
2 2 21
2 21 1
2 18 19
2 20 19
2 21 20
2 21 18
2 3 22
2 22 0
2 9 23
2 23 8
2 22 23
2 23 19
2 22 18
2 7 24
2 24 4
2 16 25
2 25 17
2 24 23
2 19 25
2 24 25
2 6 26
2 26 5
2 26 20
2 26 25

CELL_TYPES 54
3 
3 
3 
3 
3 
3 
3 
3 
3 
3 
3 
3 
3 
3 
3 
3 
3 
3 
3 
3 
3 
3 
3 
3 
3 
3 
3 
3 
3 
3 
3 
3 
3 
3 
3 
3 
3 
3 
3 
3 
3 
3 
3 
3 
3 
3 
3 
3 
3 
3 
3 
3 
3 
3 
POINT_DATA 27
SCALARS GMDS_ID int 1
LOOKUP_TABLE default
0 1 2 3 4 5 6 7 8 9 10 11 12 13 14 15 16 17 18 19 20 21 22 23 24 25 26 
SCALARS geom_link_dim int 1
LOOKUP_TABLE default
0 1 1 1 1 1 1 1 1 2 2 2 1 2 3 1 2 2 1 0 3 2 1 1 2 3 2 
SCALARS geom_link_id int 1
LOOKUP_TABLE default
-1 10 14 11 8 9 13 12 1 21 12 15 3 6 5 2 20 11 7 -1 1 16 5 4 5 2 9 


CELL_DATA 54
SCALARS GMDS_ID int 1
LOOKUP_TABLE default
0 2 4 6 8 9 10 11 12 13 14 15 16 17 18 19 21 23 24 25 26 27 29 31 32 33 34 35 36 38 39 40 41 42 43 44 45 46 47 48 49 50 51 52 53 54 55 56 57 58 59 60 61 62 

SCALARS geom_link_dim int 1
LOOKUP_TABLE default
0 0 0 2 2 2 0 2 0 2 2 2 2 2 2 2 0 0 0 0 2 0 0 2 2 2 2 2 0 0 2 2 0 0 0 0 2 0 0 2 2 0 2 2 2 0 0 0 0 0 2 2 0 0 

SCALARS geom_link_id int 1
LOOKUP_TABLE default
-1 -1 -1 14 6 6 0 13 0 18 21 21 12 12 15 15 -1 -1 0 0 10 0 0 19 20 20 11 11 0 0 16 16 -1 -1 -1 -1 17 -1 -1 8 4 -1 7 5 5 -1 -1 -1 -1 -1 9 9 -1 -1 

