# vtk DataFile Version 3.0
Generated by GMDS VTK Writer

ASCII
DATASET UNSTRUCTURED_GRID
POINTS 26 float
0 2 0
2 2 0
2 0 0
0 0 2
0 2 2
2 2 2
2 0 2
0 0 1
2 0 1
2 2 1
0 2 1
0 1 0
2 1 0
2 1 1
0 1 1
2 1 2
0 1 2
1 1 0
1 1 1
1 2 1
1 2 0
1 0 0
1 0 1
1 0 2
1 1 2
1 2 2

CELLS 51 153
2 19 10
2 9 19
2 12 17
2 17 11
2 12 1
2 2 12
2 11 0
2 7 3
2 2 8
2 8 6
2 1 9
2 9 5
2 0 10
2 10 4
2 13 18
2 18 14
2 8 13
2 13 9
2 7 14
2 14 10
2 12 13
2 11 14
2 6 15
2 15 5
2 3 16
2 16 4
2 15 13
2 16 14
2 1 20
2 20 0
2 17 18
2 19 18
2 20 19
2 20 17
2 2 21
2 8 22
2 22 7
2 21 22
2 22 18
2 21 17
2 6 23
2 23 3
2 15 24
2 24 16
2 23 22
2 18 24
2 23 24
2 5 25
2 25 4
2 25 19
2 25 24

CELL_TYPES 51
3 
3 
3 
3 
3 
3 
3 
3 
3 
3 
3 
3 
3 
3 
3 
3 
3 
3 
3 
3 
3 
3 
3 
3 
3 
3 
3 
3 
3 
3 
3 
3 
3 
3 
3 
3 
3 
3 
3 
3 
3 
3 
3 
3 
3 
3 
3 
3 
3 
3 
3 
POINT_DATA 26
SCALARS GMDS_ID int 1
LOOKUP_TABLE default
1 2 3 4 5 6 7 8 9 10 11 12 13 14 15 16 17 18 19 20 21 22 23 24 25 26 
SCALARS geom_link_dim int 1
LOOKUP_TABLE default
1 1 1 1 1 1 1 1 2 2 2 1 2 3 1 2 2 1 1 3 2 1 1 2 3 2 
SCALARS geom_link_id int 1
LOOKUP_TABLE default
10 14 11 8 9 13 12 1 21 12 15 3 6 5 2 20 11 7 6 1 16 5 4 5 2 9 


CELL_DATA 51
SCALARS GMDS_ID int 1
LOOKUP_TABLE default
0 2 4 6 8 9 11 13 14 15 16 17 18 19 21 23 24 25 26 27 29 31 32 33 34 35 36 38 39 40 41 42 43 44 45 47 48 49 50 51 52 53 54 55 56 57 58 59 60 61 62 

SCALARS geom_link_dim int 1
LOOKUP_TABLE default
3 3 3 2 2 2 2 2 2 2 2 2 2 2 4 2 3 3 2 3 3 2 2 2 2 2 3 3 2 2 2 4 3 3 2 3 2 2 2 2 2 2 3 3 3 4 3 2 2 3 3 

SCALARS geom_link_id int 1
LOOKUP_TABLE default
1 1 7 14 6 6 13 18 21 21 12 12 15 15 1 2 5 5 10 6 5 19 20 20 11 11 5 6 16 16 3 1 1 7 17 3 8 4 1 7 5 5 2 2 3 1 2 9 9 1 2 

