# vtk DataFile Version 3.0
Generated by GMDS VTK Writer

ASCII
DATASET UNSTRUCTURED_GRID
POINTS 18 float
0 0 0
0 2 0
2 2 0
2 0 0
0 0 2
0 2 2
2 2 2
2 0 2
0 0 1
2 0 1
2 2 1
0 2 1
1 2 0
1 0 0
1 0 1
1 2 1
1 0 2
1 2 2

CELLS 33 99
2 0 1
2 2 3
2 4 5
2 6 7
2 13 0
2 3 13
2 2 12
2 12 1
2 0 8
2 8 4
2 3 9
2 9 7
2 2 10
2 10 6
2 1 11
2 11 5
2 10 9
2 8 11
2 9 14
2 14 8
2 10 15
2 15 11
2 12 13
2 13 14
2 14 15
2 12 15
2 7 16
2 16 4
2 6 17
2 17 5
2 16 14
2 17 16
2 17 15

CELL_TYPES 33
3 
3 
3 
3 
3 
3 
3 
3 
3 
3 
3 
3 
3 
3 
3 
3 
3 
3 
3 
3 
3 
3 
3 
3 
3 
3 
3 
3 
3 
3 
3 
3 
3 
POINT_DATA 18
SCALARS GMDS_ID int 1
LOOKUP_TABLE default
0 1 2 3 4 5 6 7 8 9 10 11 12 13 14 15 16 17 
SCALARS geom_link_dim_0 int 1
LOOKUP_TABLE default
0 0 0 0 0 0 0 0 0 0 0 0 0 0 0 0 0 0 
SCALARS geom_link_id_0 int 1
LOOKUP_TABLE default
0 0 0 0 0 0 0 0 0 0 0 0 0 0 0 0 0 0 


CELL_DATA 33
SCALARS GMDS_ID int 1
LOOKUP_TABLE default
0 2 4 6 8 9 10 11 12 13 14 15 16 17 18 19 21 23 24 25 26 27 28 29 30 31 32 33 34 35 36 37 38 

SCALARS geom_link_dim_0 int 1
LOOKUP_TABLE default
0 0 0 0 0 0 0 0 0 0 0 0 0 0 0 0 0 0 0 0 0 0 0 0 0 0 0 0 0 0 0 0 0 

SCALARS geom_link_id_0 int 1
LOOKUP_TABLE default
0 0 0 0 0 0 0 0 0 0 0 0 0 0 0 0 0 0 0 0 0 0 0 0 0 0 0 0 0 0 0 0 0 

