# vtk DataFile Version 3.0
Generated by GMDS VTK Writer

ASCII
DATASET UNSTRUCTURED_GRID
POINTS 12 float
0 0 0
0 2 0
2 2 0
2 0 0
0 0 2
0 2 2
2 2 2
2 0 2
0 0 1
2 0 1
2 2 1
0 2 1

CELLS 11 55
4 0 3 2 1 
4 4 5 6 7 
4 0 3 9 8 
4 8 9 7 4 
4 2 3 9 10 
4 10 9 7 6 
4 1 2 10 11 
4 11 10 6 5 
4 0 1 11 8 
4 8 11 5 4 
4 8 9 10 11 

CELL_TYPES 11
9 
9 
9 
9 
9 
9 
9 
9 
9 
9 
9 
POINT_DATA 12
SCALARS GMDS_ID int 1
LOOKUP_TABLE default
0 1 2 3 4 5 6 7 8 9 10 11 
SCALARS geom_link_dim int 1
LOOKUP_TABLE default
0 1 1 1 1 1 1 1 1 2 2 2 
SCALARS geom_link_id int 1
LOOKUP_TABLE default
-1 10 14 11 8 9 13 12 1 21 12 15 


CELL_DATA 11
SCALARS GMDS_ID int 1
LOOKUP_TABLE default
0 5 6 7 8 9 10 11 12 13 14 

SCALARS geom_link_dim int 1
LOOKUP_TABLE default
0 0 0 0 0 0 0 0 0 0 0 

SCALARS geom_link_id int 1
LOOKUP_TABLE default
0 0 -1 -1 -1 -1 -1 -1 -1 -1 -1 

