# vtk DataFile Version 3.0
Generated by GMDS VTK Writer

ASCII
DATASET UNSTRUCTURED_GRID
POINTS 27 float
0 0 0
0 2 0
2 2 0
2 0 0
0 0 2
0 2 2
2 2 2
2 0 2
0 0 1
2 0 1
2 2 1
0 2 1
0 1 0
2 1 0
2 1 1
0 1 1
2 1 2
0 1 2
1 1 0
1 1 1
1 2 1
1 2 0
1 0 0
1 0 1
1 0 2
1 1 2
1 2 2

CELLS 36 180
4 2 13 18 21 
4 13 14 10 2 
4 3 9 14 13 
4 21 20 11 1 
4 2 10 20 21 
4 20 19 15 11 
4 10 14 19 20 
4 18 19 15 12 
4 13 14 19 18 
4 0 8 15 12 
4 12 15 11 1 
4 7 9 14 16 
4 16 14 10 6 
4 4 8 15 17 
4 17 15 11 5 
4 21 18 12 1 
4 18 19 20 21 
4 3 9 23 22 
4 22 23 8 0 
4 9 14 19 23 
4 23 19 15 8 
4 3 13 18 22 
4 22 18 12 0 
4 22 23 19 18 
4 7 9 23 24 
4 24 23 8 4 
4 14 16 25 19 
4 19 25 17 15 
4 7 16 25 24 
4 24 25 17 4 
4 24 23 19 25 
4 6 10 20 26 
4 26 20 11 5 
4 6 16 25 26 
4 26 25 17 5 
4 25 19 20 26 

CELL_TYPES 36
9 
9 
9 
9 
9 
9 
9 
9 
9 
9 
9 
9 
9 
9 
9 
9 
9 
9 
9 
9 
9 
9 
9 
9 
9 
9 
9 
9 
9 
9 
9 
9 
9 
9 
9 
9 
POINT_DATA 27
SCALARS GMDS_ID int 1
LOOKUP_TABLE default
0 1 2 3 4 5 6 7 8 9 10 11 12 13 14 15 16 17 18 19 20 21 22 23 24 25 26 
SCALARS geom_link_dim_0 int 1
LOOKUP_TABLE default
0 0 0 0 0 0 0 0 0 0 0 0 0 0 0 0 0 0 0 0 0 0 0 0 0 0 0 
SCALARS geom_link_id_0 int 1
LOOKUP_TABLE default
0 0 0 0 0 0 0 0 0 0 0 0 0 0 0 0 0 0 0 0 0 0 0 0 0 0 0 


CELL_DATA 36
SCALARS GMDS_ID int 1
LOOKUP_TABLE default
0 1 2 5 8 9 12 13 14 17 18 20 21 24 25 27 28 29 30 31 32 33 34 35 36 37 38 39 40 41 42 43 44 45 46 47 

SCALARS geom_link_dim_0 int 1
LOOKUP_TABLE default
0 0 0 0 0 0 0 0 0 0 0 0 0 0 0 0 0 0 0 0 0 0 0 0 0 0 0 0 0 0 0 0 0 0 0 0 

SCALARS geom_link_id_0 int 1
LOOKUP_TABLE default
0 0 0 0 0 0 0 0 0 0 0 0 0 0 0 0 0 0 0 0 0 0 0 0 0 0 0 0 0 0 0 0 0 0 0 0 

