# vtk DataFile Version 3.0
Generated by GMDS VTK Writer

ASCII
DATASET UNSTRUCTURED_GRID
POINTS 26 float
0 2 0
2 2 0
2 0 0
0 0 2
0 2 2
2 2 2
2 0 2
0 0 1
2 0 1
2 2 1
0 2 1
1 2 0
1 0 0
1 0 1
1 2 1
1 0 2
1 2 2
1 1 0
1 1 1
0 1 1
0 1 0
2 1 0
2 1 1
2 1 2
1 1 2
0 1 2

CELLS 33 165
4 2 8 13 12 
4 20 19 10 0 
4 19 18 14 10 
4 7 13 18 19 
4 17 18 14 11 
4 12 13 18 17 
4 1 9 14 11 
4 11 14 10 0 
4 6 8 13 15 
4 15 13 7 3 
4 5 9 14 16 
4 16 14 10 4 
4 20 17 11 0 
4 17 18 19 20 
4 2 8 22 21 
4 21 22 9 1 
4 8 13 18 22 
4 22 18 14 9 
4 2 12 17 21 
4 21 17 11 1 
4 21 22 18 17 
4 6 8 22 23 
4 23 22 9 5 
4 13 15 24 18 
4 18 24 16 14 
4 6 15 24 23 
4 23 24 16 5 
4 23 22 18 24 
4 3 7 19 25 
4 25 19 10 4 
4 3 15 24 25 
4 25 24 16 4 
4 24 18 19 25 

CELL_TYPES 33
9 
9 
9 
9 
9 
9 
9 
9 
9 
9 
9 
9 
9 
9 
9 
9 
9 
9 
9 
9 
9 
9 
9 
9 
9 
9 
9 
9 
9 
9 
9 
9 
9 
POINT_DATA 26
SCALARS GMDS_ID int 1
LOOKUP_TABLE default
1 2 3 4 5 6 7 8 9 10 11 12 13 14 15 16 17 18 19 20 21 22 23 24 25 26 
SCALARS geom_link_dim_0 int 1
LOOKUP_TABLE default
0 0 0 0 0 0 0 0 0 0 0 0 0 0 0 0 0 0 0 0 0 0 0 0 0 0 
SCALARS geom_link_id_0 int 1
LOOKUP_TABLE default
0 0 0 0 0 0 0 0 0 0 0 0 0 0 0 0 0 0 0 0 0 0 0 0 0 0 


CELL_DATA 33
SCALARS GMDS_ID int 1
LOOKUP_TABLE default
2 5 7 10 11 14 17 18 20 21 24 25 27 28 29 30 31 32 33 34 35 36 37 38 39 40 41 42 43 44 45 46 47 

SCALARS geom_link_dim_0 int 1
LOOKUP_TABLE default
0 0 0 0 0 0 0 0 0 0 0 0 0 0 0 0 0 0 0 0 0 0 0 0 0 0 0 0 0 0 0 0 0 

SCALARS geom_link_id_0 int 1
LOOKUP_TABLE default
0 0 0 0 0 0 0 0 0 0 0 0 0 0 0 0 0 0 0 0 0 0 0 0 0 0 0 0 0 0 0 0 0 

