# vtk DataFile Version 3.0
Generated by GMDS VTK Writer

ASCII
DATASET UNSTRUCTURED_GRID
POINTS 18 float
0 0 0
0 10 0
10 10 0
10 0 0
0 0 10
0 10 10
10 10 10
10 0 10
6 0 0
6 10 0
6 10 10
6 0 10
0 0 8
0 10 8
6 10 8
6 0 8
10 10 8
10 0 8

CELLS 4 36
8 0 1 9 8 12 13 14 15 
8 12 13 14 15 4 5 10 11 
8 8 9 2 3 15 14 16 17 
8 15 14 16 17 11 10 6 7 

CELL_TYPES 4
12 
12 
12 
12 
POINT_DATA 18
SCALARS GMDS_ID int 1
LOOKUP_TABLE default
0 1 2 3 4 5 6 7 8 9 10 11 12 13 14 15 16 17 
SCALARS geom_link_dim int 1
LOOKUP_TABLE default
1 1 1 1 1 1 1 1 2 2 2 2 2 2 3 3 2 2 
SCALARS geom_link_id int 1
LOOKUP_TABLE default
10 12 16 13 9 11 15 14 20 30 25 28 21 32 17 12 27 33 


CELL_DATA 4
SCALARS GMDS_ID int 1
LOOKUP_TABLE default
0 3 4 5 

SCALARS is_in int 1
LOOKUP_TABLE default
1 1 1 1 

SCALARS geom_link_dim int 1
LOOKUP_TABLE default
0 0 0 0 

SCALARS geom_link_id int 1
LOOKUP_TABLE default
-1 -1 -1 -1 

