# vtk DataFile Version 3.0
Generated by GMDS VTK Writer

ASCII
DATASET UNSTRUCTURED_GRID
POINTS 125 float
0 0 0
0 10 0
10 10 0
10 0 0
0 0 10
0 10 10
10 10 10
10 0 10
0 1 0
0 1 10
10 1 10
10 1 0
0 6 0
0 6 10
10 6 10
10 6 0
6 6 0
6 6 10
6 10 10
6 10 0
6 1 0
6 1 10
6 0 0
6 0 10
0 10 1
0 6 1
6 6 1
6 10 1
10 6 1
10 10 1
0 1 1
6 1 1
10 1 1
0 0 1
6 0 1
10 0 1
0 10 8
0 6 8
6 6 8
6 10 8
10 6 8
10 10 8
0 1 8
6 1 8
10 1 8
0 0 8
6 0 8
10 0 8
8 6 0
8 10 0
8 10 1
8 6 1
8 6 8
8 10 8
8 10 10
8 6 10
8 1 0
8 1 1
8 0 0
8 0 1
8 1 8
8 1 10
8 0 8
8 0 10
1 6 1
1 1 1
1 1 8
1 6 8
1 10 0
1 6 0
1 10 1
1 10 8
1 6 10
1 10 10
1 1 0
1 0 0
1 0 1
1 1 10
1 0 8
1 0 10
8 8 10
8 8 8
10 8 8
10 8 10
1 8 10
1 8 8
6 8 8
6 8 10
0 8 10
0 8 8
1 8 0
1 8 1
6 8 1
6 8 0
0 8 0
0 8 1
8 8 0
8 8 1
10 8 1
10 8 0
1 6 6
1 1 6
6 1 6
6 6 6
0 6 6
0 1 6
8 1 6
8 6 6
10 1 6
10 6 6
6 0 6
8 0 6
10 0 6
0 0 6
1 0 6
1 8 6
6 8 6
1 10 6
6 10 6
0 8 6
0 10 6
8 8 6
10 8 6
8 10 6
10 10 6

CELLS 64 576
8 64 65 31 26 100 101 102 103 
8 87 86 81 80 18 39 53 54 
8 72 67 38 17 84 85 86 87 
8 8 12 25 30 74 69 64 65 
8 69 64 26 16 90 91 92 93 
8 104 105 101 100 37 42 66 67 
8 25 30 65 64 104 105 101 100 
8 17 38 52 55 87 86 81 80 
8 88 89 85 84 5 36 71 73 
8 100 101 102 103 67 66 43 38 
8 13 37 67 72 88 89 85 84 
8 106 111 112 108 60 62 47 44 
8 57 59 35 32 106 111 112 108 
8 31 34 59 57 102 110 111 106 
8 84 85 86 87 73 71 39 18 
8 103 102 106 107 38 43 60 52 
8 102 110 111 106 43 46 62 60 
8 26 31 57 51 103 102 106 107 
8 107 106 108 109 52 60 44 40 
8 51 57 32 28 107 106 108 109 
8 80 81 82 83 54 53 41 6 
8 55 52 40 14 80 81 82 83 
8 16 20 31 26 48 56 57 51 
8 48 56 57 51 15 11 32 28 
8 20 22 34 31 56 58 59 57 
8 56 58 59 57 11 3 35 32 
8 38 43 21 17 52 60 61 55 
8 52 60 61 55 40 44 10 14 
8 43 46 23 21 60 62 63 61 
8 60 62 63 61 44 47 7 10 
8 74 69 64 65 20 16 26 31 
8 0 8 30 33 75 74 65 76 
8 75 74 65 76 22 20 31 34 
8 37 42 9 13 67 66 77 72 
8 67 66 77 72 38 43 21 17 
8 42 45 4 9 66 78 79 77 
8 66 78 79 77 43 46 23 21 
8 90 91 92 93 68 70 27 19 
8 12 25 64 69 94 95 91 90 
8 94 95 91 90 1 24 70 68 
8 48 51 28 15 96 97 98 99 
8 96 97 98 99 49 50 29 2 
8 16 26 51 48 93 92 97 96 
8 93 92 97 96 19 27 50 49 
8 30 33 76 65 105 113 114 101 
8 105 113 114 101 42 45 78 66 
8 65 76 34 31 101 114 110 102 
8 101 114 110 102 66 78 46 43 
8 26 64 91 92 103 100 115 116 
8 103 100 115 116 38 67 85 86 
8 92 91 70 27 116 115 117 118 
8 116 115 117 118 86 85 71 39 
8 25 64 91 95 104 100 115 119 
8 104 100 115 119 37 67 85 89 
8 95 91 70 24 119 115 117 120 
8 119 115 117 120 89 85 71 36 
8 28 51 97 98 109 107 121 122 
8 109 107 121 122 40 52 81 82 
8 98 97 50 29 122 121 123 124 
8 122 121 123 124 82 81 53 41 
8 26 51 97 92 103 107 121 116 
8 103 107 121 116 38 52 81 86 
8 92 97 50 27 116 121 123 118 
8 116 121 123 118 86 81 53 39 

CELL_TYPES 64
12 
12 
12 
12 
12 
12 
12 
12 
12 
12 
12 
12 
12 
12 
12 
12 
12 
12 
12 
12 
12 
12 
12 
12 
12 
12 
12 
12 
12 
12 
12 
12 
12 
12 
12 
12 
12 
12 
12 
12 
12 
12 
12 
12 
12 
12 
12 
12 
12 
12 
12 
12 
12 
12 
12 
12 
12 
12 
12 
12 
12 
12 
12 
12 
POINT_DATA 125
SCALARS GMDS_ID int 1
LOOKUP_TABLE default
0 1 2 3 4 5 6 7 8 9 10 11 12 13 14 15 16 17 18 19 20 21 22 23 24 25 26 27 28 29 30 31 32 33 34 35 36 37 38 39 40 41 42 43 44 45 46 47 48 49 50 51 52 53 54 55 56 57 58 59 60 61 62 63 64 65 66 67 68 69 70 71 72 73 74 75 76 77 78 79 80 81 82 83 84 85 86 87 88 89 90 91 92 93 94 95 96 97 98 99 100 101 102 103 104 105 106 107 108 109 110 111 112 113 114 115 116 117 118 119 120 121 122 123 124 
SCALARS geom_link_dim int 1
LOOKUP_TABLE default
1 1 1 1 1 1 1 1 2 2 2 2 2 2 2 2 3 3 2 2 3 3 2 2 2 3 0 3 3 2 3 0 3 2 3 2 2 3 0 3 3 2 3 0 3 2 3 2 3 2 3 0 0 3 2 3 3 0 2 3 0 3 3 2 0 0 0 0 2 3 3 3 3 2 3 2 3 3 3 2 3 0 3 2 3 0 0 3 2 3 3 0 0 3 2 3 3 0 3 2 0 0 0 0 3 3 0 0 3 3 3 3 2 2 3 0 0 3 3 3 2 0 3 3 2 
SCALARS geom_link_id int 1
LOOKUP_TABLE default
10 12 16 13 9 11 15 14 19 29 26 31 19 29 26 31 11 18 25 30 11 18 20 28 32 10 0 17 13 27 10 0 13 21 12 33 32 10 0 17 13 27 10 0 13 21 12 33 11 30 17 0 0 17 25 18 11 0 20 12 0 18 12 28 0 0 0 0 30 11 17 17 18 25 11 20 12 18 12 28 18 0 13 26 18 0 0 18 29 10 11 0 0 11 19 10 11 0 13 31 -1 -1 -1 -1 10 10 -1 -1 13 13 12 12 33 21 12 -1 -1 17 17 10 32 -1 13 17 27 


CELL_DATA 64
SCALARS GMDS_ID int 1
LOOKUP_TABLE default
0 1 2 3 4 5 6 7 8 9 10 11 12 13 14 15 16 17 18 19 20 21 24 25 26 27 30 31 34 35 36 37 38 39 40 43 44 45 46 47 48 49 50 51 60 61 62 63 64 65 66 67 68 69 70 71 72 73 74 75 76 77 78 79 

SCALARS is_in int 1
LOOKUP_TABLE default
0 1 1 1 1 1 1 1 1 1 1 1 1 1 1 1 1 1 1 1 1 1 1 1 1 1 1 1 1 1 1 1 1 1 1 1 1 1 1 1 1 1 1 1 1 1 1 1 1 1 1 1 1 1 1 1 1 1 1 1 1 0 1 1 

SCALARS geom_link_dim int 1
LOOKUP_TABLE default
0 0 0 0 0 0 0 0 0 0 0 0 0 0 0 0 0 0 0 0 0 0 0 0 0 0 0 0 0 0 0 0 0 0 0 0 0 0 0 0 0 0 0 0 0 0 0 0 0 0 0 0 0 0 0 0 0 0 0 0 0 0 0 0 

SCALARS geom_link_id int 1
LOOKUP_TABLE default
-1 0 0 0 0 -1 -1 0 0 -1 0 -1 -1 -1 0 -1 -1 -1 -1 -1 0 0 0 0 0 0 0 0 0 0 0 0 0 0 0 0 0 0 0 0 0 0 0 0 -1 -1 -1 -1 -1 -1 -1 -1 -1 -1 -1 -1 -1 -1 -1 -1 -1 -1 -1 -1 

