# vtk DataFile Version 3.0
Generated by GMDS VTK Writer

ASCII
DATASET UNSTRUCTURED_GRID
POINTS 64 float
0 0 0
0 10 0
10 10 0
10 0 0
0 0 10
0 10 10
10 10 10
10 0 10
0 1 0
0 1 10
10 1 10
10 1 0
0 6 0
0 6 10
10 6 10
10 6 0
6 6 0
6 6 10
6 10 10
6 10 0
6 1 0
6 1 10
6 0 0
6 0 10
0 10 1
0 6 1
6 6 1
6 10 1
10 6 1
10 10 1
0 1 1
6 1 1
10 1 1
0 0 1
6 0 1
10 0 1
0 10 8
0 6 8
6 6 8
6 10 8
10 6 8
10 10 8
0 1 8
6 1 8
10 1 8
0 0 8
6 0 8
10 0 8
8 6 0
8 10 0
8 10 1
8 6 1
8 6 8
8 10 8
8 10 10
8 6 10
8 1 0
8 1 1
8 0 0
8 0 1
8 1 8
8 1 10
8 0 8
8 0 10

CELLS 27 243
8 51 50 53 52 28 29 41 40 
8 1 12 16 19 24 25 26 27 
8 42 37 38 43 9 13 17 21 
8 30 25 26 31 42 37 38 43 
8 36 37 38 39 5 13 17 18 
8 24 25 26 27 36 37 38 39 
8 26 27 39 38 51 50 53 52 
8 8 12 16 20 30 25 26 31 
8 52 53 54 55 40 41 6 14 
8 38 39 18 17 52 53 54 55 
8 0 8 20 22 33 30 31 34 
8 48 49 50 51 15 2 29 28 
8 16 19 27 26 48 49 50 51 
8 33 30 31 34 45 42 43 46 
8 45 42 43 46 4 9 21 23 
8 16 20 31 26 48 56 57 51 
8 48 56 57 51 15 11 32 28 
8 20 22 34 31 56 58 59 57 
8 56 58 59 57 11 3 35 32 
8 26 31 43 38 51 57 60 52 
8 51 57 60 52 28 32 44 40 
8 38 43 21 17 52 60 61 55 
8 52 60 61 55 40 44 10 14 
8 31 34 46 43 57 59 62 60 
8 57 59 62 60 32 35 47 44 
8 43 46 23 21 60 62 63 61 
8 60 62 63 61 44 47 7 10 

CELL_TYPES 27
12 
12 
12 
12 
12 
12 
12 
12 
12 
12 
12 
12 
12 
12 
12 
12 
12 
12 
12 
12 
12 
12 
12 
12 
12 
12 
12 
POINT_DATA 64
SCALARS GMDS_ID int 1
LOOKUP_TABLE default
0 1 2 3 4 5 6 7 8 9 10 11 12 13 14 15 16 17 18 19 20 21 22 23 24 25 26 27 28 29 30 31 32 33 34 35 36 37 38 39 40 41 42 43 44 45 46 47 48 49 50 51 52 53 54 55 56 57 58 59 60 61 62 63 
SCALARS geom_link_dim int 1
LOOKUP_TABLE default
1 1 1 1 1 1 1 1 2 2 2 2 2 2 2 2 3 3 2 2 3 3 2 2 2 3 0 3 3 2 3 0 3 2 3 2 2 3 0 3 3 2 3 0 3 2 3 2 3 2 3 0 0 3 2 3 3 0 2 3 0 3 3 2 
SCALARS geom_link_id int 1
LOOKUP_TABLE default
10 12 16 13 9 11 15 14 19 29 26 31 19 29 26 31 11 18 25 30 11 18 20 28 32 10 0 17 13 27 10 0 13 21 12 33 32 10 0 17 13 27 10 0 13 21 12 33 11 30 17 -1 -1 17 25 18 11 -1 20 12 -1 18 12 28 


CELL_DATA 27
SCALARS GMDS_ID int 1
LOOKUP_TABLE default
0 1 2 4 7 8 9 10 11 13 14 15 17 20 21 24 25 26 27 28 29 30 31 32 33 34 35 

SCALARS is_in int 1
LOOKUP_TABLE default
1 1 1 1 1 1 1 1 1 1 1 1 1 1 1 1 1 1 1 1 1 1 1 1 1 1 1 

SCALARS geom_link_dim int 1
LOOKUP_TABLE default
0 0 0 0 0 0 0 0 0 0 0 0 0 0 0 0 0 0 0 0 0 0 0 0 0 0 0 

SCALARS geom_link_id int 1
LOOKUP_TABLE default
-1 0 0 0 0 0 -1 0 -1 -1 0 -1 -1 0 0 -1 -1 -1 -1 -1 -1 -1 -1 -1 -1 -1 -1 

