# vtk DataFile Version 3.0
Generated by GMDS VTK Writer

ASCII
DATASET UNSTRUCTURED_GRID
POINTS 216 float
0 0 0
0 10 0
10 10 0
10 0 0
0 0 10
0 10 10
10 10 10
10 0 10
0 1 0
0 1 10
10 1 10
10 1 0
0 6 0
0 6 10
10 6 10
10 6 0
6 6 0
6 6 10
6 10 10
6 10 0
6 1 0
6 1 10
6 0 0
6 0 10
0 10 1
0 6 1
6 6 1
6 10 1
10 6 1
10 10 1
0 1 1
6 1 1
10 1 1
0 0 1
6 0 1
10 0 1
0 10 8
0 6 8
6 6 8
6 10 8
10 6 8
10 10 8
0 1 8
6 1 8
10 1 8
0 0 8
6 0 8
10 0 8
8 6 0
8 10 0
8 10 1
8 6 1
8 6 8
8 10 8
8 10 10
8 6 10
8 1 0
8 1 1
8 0 0
8 0 1
8 1 8
8 1 10
8 0 8
8 0 10
1 6 1
1 1 1
1 1 8
1 6 8
1 10 0
1 6 0
1 10 1
1 10 8
1 6 10
1 10 10
1 1 0
1 0 0
1 0 1
1 1 10
1 0 8
1 0 10
8 8 10
8 8 8
10 8 8
10 8 10
1 8 10
1 8 8
6 8 8
6 8 10
0 8 10
0 8 8
1 8 0
1 8 1
6 8 1
6 8 0
0 8 0
0 8 1
8 8 0
8 8 1
10 8 1
10 8 0
1 6 6
1 1 6
6 1 6
6 6 6
0 6 6
0 1 6
8 1 6
8 6 6
10 1 6
10 6 6
6 0 6
8 0 6
10 0 6
0 0 6
1 0 6
1 8 6
6 8 6
1 10 6
6 10 6
0 8 6
0 10 6
8 8 6
10 8 6
8 10 6
10 10 6
8 4 10
8 4 8
10 4 8
10 4 10
1 4 10
1 4 8
6 4 8
6 4 10
0 4 10
0 4 8
10 4 6
8 4 6
10 4 1
8 4 1
6 4 6
6 4 1
1 4 0
1 4 1
6 4 0
0 4 6
1 4 6
0 4 1
0 4 0
8 4 0
10 4 0
10 4 4
8 4 4
8 1 4
10 1 4
10 6 4
8 6 4
6 1 4
6 0 4
8 0 4
10 0 4
0 1 4
0 0 4
1 0 4
1 1 4
6 6 4
1 6 4
1 8 4
6 8 4
1 10 4
6 10 4
0 6 4
0 8 4
0 10 4
8 8 4
10 8 4
8 10 4
10 10 4
6 4 4
1 4 4
0 4 4
4 1 4
4 0 4
4 0 6
4 1 6
4 1 1
4 0 1
4 8 8
4 8 10
4 10 10
4 10 8
4 6 8
4 6 10
4 0 0
4 1 0
4 1 8
4 0 8
4 0 10
4 1 10
4 6 1
4 6 0
4 8 0
4 8 1
4 10 0
4 10 1
4 4 8
4 4 10
4 6 6
4 8 6
4 10 6
4 4 0
4 4 1
4 4 6
4 8 4
4 6 4
4 10 4
4 4 4

CELLS 122 1098
8 137 138 57 32 150 151 152 153 
8 87 86 81 80 18 39 53 54 
8 31 34 59 57 156 157 158 152 
8 57 59 35 32 152 158 159 153 
8 156 157 158 152 102 110 111 106 
8 17 38 52 55 87 86 81 80 
8 88 89 85 84 5 36 71 73 
8 150 151 152 153 135 136 106 108 
8 13 37 67 72 88 89 85 84 
8 106 111 112 108 60 62 47 44 
8 67 72 129 130 190 191 205 204 
8 190 191 205 204 38 17 132 131 
8 160 161 162 163 105 113 114 101 
8 102 110 111 106 43 46 62 60 
8 30 33 76 65 160 161 162 163 
8 80 81 82 83 54 53 41 6 
8 55 52 40 14 80 81 82 83 
8 67 72 84 85 190 191 187 186 
8 190 191 187 186 38 17 87 86 
8 28 51 138 137 154 155 151 150 
8 154 155 151 150 109 107 136 135 
8 20 22 34 31 56 58 59 57 
8 56 58 59 57 11 3 35 32 
8 139 136 126 131 102 106 60 43 
8 103 107 52 38 139 136 126 131 
8 183 182 195 194 102 110 46 43 
8 101 114 78 66 183 182 195 194 
8 43 46 23 21 60 62 63 61 
8 60 62 63 61 44 47 7 10 
8 152 158 159 153 106 111 112 108 
8 0 8 30 33 75 74 65 76 
8 135 136 126 127 108 106 60 44 
8 109 107 52 40 135 136 126 127 
8 42 45 4 9 66 78 79 77 
8 12 25 64 69 94 95 91 90 
8 94 95 91 90 1 24 70 68 
8 48 51 28 15 96 97 98 99 
8 96 97 98 99 49 50 29 2 
8 16 26 51 48 93 92 97 96 
8 93 92 97 96 19 27 50 49 
8 132 131 126 125 21 43 60 61 
8 17 38 52 55 132 131 126 125 
8 133 134 130 129 9 42 66 77 
8 13 37 67 72 133 134 130 129 
8 125 126 127 128 61 60 44 10 
8 55 52 40 14 125 126 127 128 
8 204 205 197 194 131 132 21 43 
8 105 113 114 101 42 45 78 66 
8 130 129 77 66 204 205 197 194 
8 201 200 202 203 92 93 19 27 
8 91 90 68 70 201 200 202 203 
8 198 199 200 201 26 16 93 92 
8 104 100 115 119 37 67 85 89 
8 64 69 90 91 198 199 200 201 
8 119 115 117 120 89 85 71 36 
8 194 195 196 197 43 46 23 21 
8 109 107 121 122 40 52 81 82 
8 66 78 79 77 194 195 196 197 
8 122 121 123 124 82 81 53 41 
8 192 193 184 185 22 20 31 34 
8 163 162 114 101 180 181 182 183 
8 75 74 65 76 192 193 184 185 
8 116 121 123 118 86 81 53 39 
8 104 100 67 37 144 145 130 134 
8 144 145 130 134 105 101 66 42 
8 184 185 181 180 31 34 157 156 
8 65 76 162 163 184 185 181 180 
8 12 25 64 69 147 146 142 141 
8 147 146 142 141 8 30 65 74 
8 48 51 28 15 148 138 137 149 
8 148 138 137 149 56 57 32 11 
8 16 26 51 48 143 140 138 148 
8 143 140 138 148 20 31 57 56 
8 186 187 188 189 86 87 18 39 
8 85 84 73 71 186 187 188 189 
8 25 64 91 95 170 165 166 171 
8 170 165 166 171 104 100 115 119 
8 95 91 70 24 171 166 168 172 
8 171 166 168 172 119 115 117 120 
8 28 51 97 98 154 155 173 174 
8 154 155 173 174 109 107 121 122 
8 98 97 50 29 174 173 175 176 
8 174 173 175 176 122 121 123 124 
8 26 51 97 92 164 155 173 167 
8 164 155 173 167 103 107 121 116 
8 92 97 50 27 167 173 175 169 
8 167 173 175 169 116 121 123 118 
8 26 51 138 140 164 155 151 177 
8 164 155 151 177 103 107 136 139 
8 140 138 57 31 177 151 152 156 
8 177 151 152 156 139 136 106 102 
8 180 181 182 183 156 157 110 102 
8 25 64 142 146 170 165 178 179 
8 170 165 178 179 104 100 145 144 
8 146 142 65 30 179 178 163 160 
8 179 178 163 160 144 145 101 105 
8 100 115 85 67 206 207 186 190 
8 206 207 186 190 103 116 86 38 
8 117 115 85 71 208 207 186 189 
8 208 207 186 189 118 116 86 39 
8 64 69 141 142 198 199 209 210 
8 198 199 209 210 26 16 143 140 
8 142 141 74 65 210 209 193 184 
8 210 209 193 184 140 143 20 31 
8 67 100 145 130 190 206 211 204 
8 190 206 211 204 38 103 139 131 
8 130 145 101 66 204 211 183 194 
8 204 211 183 194 131 139 102 43 
8 64 91 166 165 198 201 212 213 
8 198 201 212 213 26 92 167 164 
8 165 166 115 100 213 212 207 206 
8 213 212 207 206 164 167 116 103 
8 70 91 166 168 203 201 212 214 
8 203 201 212 214 27 92 167 169 
8 168 166 115 117 214 212 207 208 
8 214 212 207 208 169 167 116 118 
8 64 142 178 165 198 210 215 213 
8 198 210 215 213 26 140 177 164 
8 165 178 145 100 213 215 211 206 
8 213 215 211 206 164 177 139 103 
8 163 178 145 101 180 215 211 183 
8 180 215 211 183 156 177 139 102 

CELL_TYPES 122
12 
12 
12 
12 
12 
12 
12 
12 
12 
12 
12 
12 
12 
12 
12 
12 
12 
12 
12 
12 
12 
12 
12 
12 
12 
12 
12 
12 
12 
12 
12 
12 
12 
12 
12 
12 
12 
12 
12 
12 
12 
12 
12 
12 
12 
12 
12 
12 
12 
12 
12 
12 
12 
12 
12 
12 
12 
12 
12 
12 
12 
12 
12 
12 
12 
12 
12 
12 
12 
12 
12 
12 
12 
12 
12 
12 
12 
12 
12 
12 
12 
12 
12 
12 
12 
12 
12 
12 
12 
12 
12 
12 
12 
12 
12 
12 
12 
12 
12 
12 
12 
12 
12 
12 
12 
12 
12 
12 
12 
12 
12 
12 
12 
12 
12 
12 
12 
12 
12 
12 
12 
12 
POINT_DATA 216
SCALARS GMDS_ID int 1
LOOKUP_TABLE default
0 1 2 3 4 5 6 7 8 9 10 11 12 13 14 15 16 17 18 19 20 21 22 23 24 25 26 27 28 29 30 31 32 33 34 35 36 37 38 39 40 41 42 43 44 45 46 47 48 49 50 51 52 53 54 55 56 57 58 59 60 61 62 63 64 65 66 67 68 69 70 71 72 73 74 75 76 77 78 79 80 81 82 83 84 85 86 87 88 89 90 91 92 93 94 95 96 97 98 99 100 101 102 103 104 105 106 107 108 109 110 111 112 113 114 115 116 117 118 119 120 121 122 123 124 125 126 127 128 129 130 131 132 133 134 135 136 137 138 139 140 141 142 143 144 145 146 147 148 149 150 151 152 153 154 155 156 157 158 159 160 161 162 163 164 165 166 167 168 169 170 171 172 173 174 175 176 177 178 179 180 181 182 183 184 185 186 187 188 189 190 191 192 193 194 195 196 197 198 199 200 201 202 203 204 205 206 207 208 209 210 211 212 213 214 215 
SCALARS geom_link_dim int 1
LOOKUP_TABLE default
1 1 1 1 1 1 1 1 2 2 2 2 2 2 2 2 3 3 2 2 3 3 2 2 2 3 0 3 3 2 3 0 3 2 3 2 2 3 1 3 3 2 3 0 3 2 3 2 3 2 3 0 1 3 2 3 3 0 2 3 0 3 3 2 0 1 0 0 2 3 3 3 3 2 3 2 3 3 3 2 3 1 3 2 3 0 1 3 2 3 3 0 0 3 2 3 3 0 3 2 0 0 0 1 3 3 0 1 3 3 3 3 2 2 3 0 1 3 3 3 2 1 3 3 2 3 0 3 2 3 0 0 3 2 3 3 0 3 0 0 0 3 1 3 3 0 3 2 3 2 3 0 0 3 3 0 0 3 3 2 3 2 3 1 0 0 0 0 3 3 3 3 2 0 3 3 2 0 1 3 1 3 3 0 1 3 0 3 2 3 0 3 2 3 0 3 2 3 0 3 3 0 2 3 0 3 0 0 3 3 1 0 0 0 3 1 
SCALARS geom_link_id int 1
LOOKUP_TABLE default
10 12 16 13 9 11 15 14 19 29 26 31 19 29 26 31 11 18 25 30 11 18 20 28 32 10 0 17 13 27 10 -1 13 21 12 33 32 10 1 17 13 27 10 0 13 21 12 33 11 30 17 0 5 17 25 18 11 0 20 12 0 18 12 28 0 18 0 0 30 11 17 17 18 25 11 20 12 18 12 28 18 7 13 26 18 0 3 18 29 10 11 0 0 11 19 10 11 0 13 31 0 0 0 2 10 10 0 6 13 13 12 12 33 21 12 0 4 17 17 10 32 8 13 17 27 18 0 13 26 18 0 0 18 29 10 13 0 13 0 0 -1 11 20 11 10 0 10 19 11 31 13 0 0 13 13 0 -1 12 12 33 10 21 12 17 0 0 0 0 17 17 10 10 32 0 13 17 27 -1 19 10 22 12 12 -1 21 12 -1 18 25 17 -1 18 20 11 -1 12 28 18 -1 11 11 -1 30 17 -1 18 -1 -1 17 11 24 -1 -1 -1 17 23 


CELL_DATA 122
SCALARS GMDS_ID int 1
LOOKUP_TABLE default
0 1 3 5 6 7 8 9 10 11 12 13 15 16 17 20 21 22 23 24 25 26 27 28 29 32 33 34 35 36 37 41 42 43 46 47 48 49 50 51 52 53 54 55 56 57 60 61 62 64 66 68 69 70 71 72 73 74 75 76 77 78 79 82 83 84 85 86 87 88 89 90 91 94 95 96 97 98 99 100 101 102 103 104 105 106 107 108 109 110 111 114 116 117 118 119 120 121 122 123 124 125 126 127 128 129 130 131 132 133 134 135 136 137 138 139 140 141 142 143 144 145 

SCALARS is_in int 1
LOOKUP_TABLE default
1 1 1 1 1 1 1 1 1 1 1 1 1 1 1 1 1 1 1 1 1 1 1 1 1 1 1 1 1 1 1 1 1 1 1 1 1 1 1 1 1 1 1 1 1 1 1 1 1 1 1 1 1 1 1 1 1 1 1 1 1 1 1 1 1 1 1 1 1 1 1 1 1 1 1 1 1 1 1 1 1 1 1 1 1 1 1 1 1 1 1 1 1 1 1 1 1 1 1 1 1 1 1 1 1 1 1 1 1 1 1 1 1 1 1 1 1 1 1 1 1 1 

SCALARS geom_link_dim int 1
LOOKUP_TABLE default
0 0 0 0 0 0 0 0 0 0 0 0 0 0 0 0 0 0 0 0 0 0 0 0 0 0 0 0 0 0 0 0 0 0 0 0 0 0 0 0 0 0 0 0 0 0 0 0 0 0 0 0 0 0 0 0 0 0 0 0 0 0 0 0 0 0 0 0 0 0 0 0 0 0 0 0 0 0 0 0 0 0 0 0 0 0 0 0 0 0 0 0 0 0 0 0 0 0 0 0 0 0 0 0 0 0 0 0 0 0 0 0 0 0 0 0 0 0 0 0 0 0 

SCALARS geom_link_id int 1
LOOKUP_TABLE default
0 0 0 0 0 0 0 0 0 0 -1 -1 0 0 0 0 0 -1 -1 0 0 0 0 0 0 -1 -1 0 0 0 0 0 0 0 0 0 0 0 0 0 0 0 0 0 0 0 -1 0 -1 -1 -1 -1 0 -1 0 -1 0 -1 0 -1 -1 -1 0 0 0 -1 -1 0 0 0 0 0 0 -1 -1 0 0 0 0 0 0 0 0 0 0 0 0 0 0 0 0 -1 0 0 0 0 -1 -1 -1 -1 -1 -1 -1 -1 -1 -1 -1 -1 -1 -1 -1 -1 -1 -1 -1 -1 -1 -1 -1 -1 -1 -1 

