# vtk DataFile Version 3.0
Generated by GMDS VTK Writer

ASCII
DATASET UNSTRUCTURED_GRID
POINTS 180 float
0 0 0
0 10 0
10 10 0
10 0 0
0 0 10
0 10 10
10 10 10
10 0 10
0 4 0
0 4 10
10 4 10
10 4 0
1 0 0
1 0 10
1 4 10
1 4 0
1 10 10
1 10 0
10 0 1
10 4 1
1 4 1
1 0 1
0 4 1
0 0 1
10 10 1
1 10 1
0 10 1
10 1 0
1 1 0
1 1 1
10 1 1
1 1 10
10 1 10
0 1 0
0 1 1
0 1 10
10 0 4
1 0 4
1 1 4
10 1 4
10 10 4
10 4 4
1 4 4
1 10 4
0 4 4
0 10 4
0 0 4
0 1 4
4 10 4
4 4 4
4 4 1
4 10 1
4 10 10
4 4 10
4 1 0
4 1 1
4 4 0
4 0 0
4 0 1
4 0 4
4 1 4
4 0 10
4 1 10
4 10 0
4 6 10
4 6 4
1 6 4
1 6 10
10 6 10
10 6 4
4 6 1
1 6 1
0 6 0
1 6 0
0 6 1
10 6 1
0 6 10
0 6 4
10 6 0
4 6 0
6 1 0
6 1 1
6 4 1
6 4 0
6 0 0
6 0 1
6 0 4
6 1 4
6 0 10
6 1 10
6 6 10
6 6 4
6 4 4
6 4 10
6 10 10
6 10 4
6 10 1
6 6 1
6 10 0
6 6 0
10 0 6
10 1 6
6 1 6
6 0 6
1 6 6
4 6 6
4 4 6
1 4 6
1 10 6
4 10 6
0 0 6
1 0 6
1 1 6
0 1 6
0 4 6
4 0 6
4 1 6
0 10 6
0 6 6
10 4 6
10 6 6
6 6 6
6 4 6
10 10 6
6 10 6
10 0 8
10 1 8
6 1 8
6 0 8
1 6 8
4 6 8
4 4 8
1 4 8
1 10 8
4 10 8
0 0 8
1 0 8
1 1 8
0 1 8
0 4 8
4 0 8
4 1 8
0 10 8
0 6 8
10 4 8
10 6 8
6 6 8
6 4 8
10 10 8
6 10 8
4 8 1
4 8 4
1 8 4
1 8 1
4 8 6
1 8 6
0 8 0
1 8 0
0 8 1
0 8 4
4 8 0
4 8 8
1 8 8
4 8 10
1 8 10
10 8 4
10 8 1
6 8 1
6 8 4
10 8 0
6 8 0
0 8 6
10 8 6
6 8 6
0 8 10
0 8 8
10 8 10
6 8 10
6 8 8
10 8 8

CELLS 100 900
8 4 13 31 35 135 136 137 138 
8 72 73 71 74 8 15 20 22 
8 104 105 106 107 66 65 49 42 
8 54 55 50 56 28 29 20 15 
8 70 65 66 71 50 49 42 20 
8 110 111 112 113 46 37 38 47 
8 64 67 129 130 163 164 162 161 
8 115 116 112 111 59 60 38 37 
8 86 87 81 85 59 60 55 58 
8 0 12 21 23 33 28 29 34 
8 33 28 29 34 8 15 20 22 
8 36 39 30 18 86 87 81 85 
8 84 85 81 80 57 58 55 54 
8 3 18 30 27 84 85 81 80 
8 131 141 137 132 106 116 112 107 
8 53 62 31 14 131 141 137 132 
8 46 37 38 47 23 21 29 34 
8 140 141 137 136 115 116 112 111 
8 47 38 42 44 34 29 20 22 
8 130 129 104 105 161 162 155 154 
8 57 58 55 54 12 21 29 28 
8 113 112 107 114 47 38 42 44 
8 59 60 55 58 37 38 29 21 
8 161 162 155 154 134 133 108 109 
8 61 62 31 13 140 141 137 136 
8 80 81 82 83 54 55 50 56 
8 27 30 19 11 80 81 82 83 
8 138 137 132 139 113 112 107 114 
8 163 164 162 161 52 16 133 134 
8 49 60 55 50 42 38 29 20 
8 69 75 97 91 165 166 167 168 
8 35 31 14 9 138 137 132 139 
8 135 136 137 138 110 111 112 113 
8 77 66 71 74 44 42 20 22 
8 100 101 102 103 36 39 87 86 
8 165 166 167 168 40 24 96 95 
8 79 70 71 73 56 50 20 15 
8 129 130 131 132 104 105 106 107 
8 67 64 53 14 129 130 131 132 
8 125 126 127 128 100 101 102 103 
8 7 32 89 88 125 126 127 128 
8 41 39 30 19 92 87 81 82 
8 92 87 81 82 49 60 55 50 
8 75 69 41 19 97 91 92 82 
8 97 91 92 82 70 65 49 50 
8 78 75 19 11 99 97 82 83 
8 99 97 82 83 79 70 50 56 
8 160 150 153 157 63 51 25 17 
8 106 116 112 107 49 60 38 42 
8 79 70 71 73 160 150 153 157 
8 159 152 153 158 45 43 25 26 
8 118 104 107 114 77 66 42 44 
8 77 66 71 74 159 152 153 158 
8 103 102 116 115 86 87 60 59 
8 156 157 153 158 1 17 25 26 
8 119 120 121 122 41 69 91 92 
8 72 73 71 74 156 157 153 158 
8 122 121 105 106 92 91 65 49 
8 154 155 152 151 109 108 43 48 
8 105 104 66 65 154 155 152 151 
8 150 151 152 153 51 48 43 25 
8 119 101 102 122 41 39 87 92 
8 70 65 66 71 150 151 152 153 
8 122 102 116 106 92 87 60 49 
8 76 67 14 9 143 129 132 139 
8 143 129 132 139 118 104 107 114 
8 88 89 62 61 128 127 141 140 
8 128 127 141 140 103 102 116 115 
8 10 68 90 93 144 145 146 147 
8 144 145 146 147 119 120 121 122 
8 93 90 64 53 147 146 130 131 
8 147 146 130 131 122 121 105 106 
8 10 32 89 93 144 126 127 147 
8 144 126 127 147 119 101 102 122 
8 93 89 62 53 147 127 141 131 
8 147 127 141 131 122 102 116 106 
8 91 97 70 65 168 167 150 151 
8 168 167 150 151 95 96 51 48 
8 75 78 99 97 166 169 170 167 
8 166 169 170 167 24 2 98 96 
8 97 99 79 70 167 170 160 150 
8 167 170 160 150 96 98 63 51 
8 104 118 77 66 155 171 159 152 
8 155 171 159 152 108 117 45 43 
8 120 121 91 69 172 173 168 165 
8 172 173 168 165 123 124 95 40 
8 105 121 91 65 154 173 168 151 
8 154 173 168 151 109 124 95 48 
8 67 76 143 129 164 174 175 162 
8 164 174 175 162 16 5 142 133 
8 129 143 118 104 162 175 171 155 
8 162 175 171 155 133 142 117 108 
8 68 90 146 145 176 177 178 179 
8 176 177 178 179 6 94 149 148 
8 145 146 121 120 179 178 173 172 
8 179 178 173 172 148 149 124 123 
8 64 90 146 130 163 177 178 161 
8 163 177 178 161 52 94 149 134 
8 130 146 121 105 161 178 173 154 
8 161 178 173 154 134 149 124 109 

CELL_TYPES 100
12 
12 
12 
12 
12 
12 
12 
12 
12 
12 
12 
12 
12 
12 
12 
12 
12 
12 
12 
12 
12 
12 
12 
12 
12 
12 
12 
12 
12 
12 
12 
12 
12 
12 
12 
12 
12 
12 
12 
12 
12 
12 
12 
12 
12 
12 
12 
12 
12 
12 
12 
12 
12 
12 
12 
12 
12 
12 
12 
12 
12 
12 
12 
12 
12 
12 
12 
12 
12 
12 
12 
12 
12 
12 
12 
12 
12 
12 
12 
12 
12 
12 
12 
12 
12 
12 
12 
12 
12 
12 
12 
12 
12 
12 
12 
12 
12 
12 
12 
12 
POINT_DATA 180
SCALARS GMDS_ID int 1
LOOKUP_TABLE default
0 1 2 3 4 5 6 7 8 9 10 11 12 13 14 15 16 17 18 19 20 21 22 23 24 25 26 27 28 29 30 31 32 33 34 35 36 37 38 39 40 41 42 43 44 45 46 47 48 49 50 51 52 53 54 55 56 57 58 59 60 61 62 63 64 65 66 67 68 69 70 71 72 73 74 75 76 77 78 79 80 81 82 83 84 85 86 87 88 89 90 91 92 93 94 95 96 97 98 99 100 101 102 103 104 105 106 107 108 109 110 111 112 113 114 115 116 117 118 119 120 121 122 123 124 125 126 127 128 129 130 131 132 133 134 135 136 137 138 139 140 141 142 143 144 145 146 147 148 149 150 151 152 153 154 155 156 157 158 159 160 161 162 163 164 165 166 167 168 169 170 171 172 173 174 175 176 177 178 179 
SCALARS geom_link_dim_0 int 1
LOOKUP_TABLE default
0 0 0 0 0 0 0 0 0 0 0 0 0 0 0 0 0 0 0 0 0 0 0 0 0 0 0 0 0 0 0 0 0 0 0 0 0 0 0 0 0 0 0 0 0 0 0 0 0 0 0 0 0 0 0 0 0 0 0 0 0 0 0 0 0 0 0 0 0 0 0 0 0 0 0 0 0 0 0 0 0 0 0 0 0 0 0 0 0 0 0 0 0 0 0 0 0 0 0 0 0 0 0 0 0 0 0 0 0 0 0 0 0 0 0 0 0 0 0 0 0 0 0 0 0 0 0 0 0 0 0 0 0 0 0 0 0 0 0 0 0 0 0 0 0 0 0 0 0 0 0 0 0 0 0 0 0 0 0 0 0 0 0 0 0 0 0 0 0 0 0 0 0 0 0 0 0 0 0 0 
SCALARS geom_link_id_0 int 1
LOOKUP_TABLE default
0 0 0 0 0 0 0 0 0 0 0 0 0 0 0 0 0 0 0 0 0 0 0 0 0 0 0 0 0 0 0 0 0 0 0 0 0 0 0 0 0 0 0 0 0 0 0 0 0 0 0 0 0 0 0 0 0 0 0 0 0 0 0 0 0 0 0 0 0 0 0 0 0 0 0 0 0 0 0 0 0 0 0 0 0 0 0 0 0 0 0 0 0 0 0 0 0 0 0 0 0 0 0 0 0 0 0 0 0 0 0 0 0 0 0 0 0 0 0 0 0 0 0 0 0 0 0 0 0 0 0 0 0 0 0 0 0 0 0 0 0 0 0 0 0 0 0 0 0 0 0 0 0 0 0 0 0 0 0 0 0 0 0 0 0 0 0 0 0 0 0 0 0 0 0 0 0 0 0 0 


CELL_DATA 100
SCALARS GMDS_ID int 1
LOOKUP_TABLE default
0 1 2 3 5 7 8 9 10 12 13 15 16 17 19 20 21 22 23 24 25 26 27 28 29 30 31 33 34 35 36 37 38 40 41 42 44 46 47 48 49 50 51 54 55 58 59 60 61 62 64 65 66 67 68 69 70 71 72 74 76 77 78 79 80 81 82 83 84 85 86 87 92 93 94 95 96 97 98 99 100 101 102 103 104 105 106 107 108 109 110 111 112 113 114 115 116 117 118 119 

SCALARS geom_link_dim_0 int 1
LOOKUP_TABLE default
0 0 0 0 0 0 0 0 0 0 0 0 0 0 0 0 0 0 0 0 0 0 0 0 0 0 0 0 0 0 0 0 0 0 0 0 0 0 0 0 0 0 0 0 0 0 0 0 0 0 0 0 0 0 0 0 0 0 0 0 0 0 0 0 0 0 0 0 0 0 0 0 0 0 0 0 0 0 0 0 0 0 0 0 0 0 0 0 0 0 0 0 0 0 0 0 0 0 0 0 

SCALARS geom_link_id_0 int 1
LOOKUP_TABLE default
0 0 0 0 0 0 0 0 0 0 0 0 0 0 0 0 0 0 0 0 0 0 0 0 0 0 0 0 0 0 0 0 0 0 0 0 0 0 0 0 0 0 0 0 0 0 0 0 0 0 0 0 0 0 0 0 0 0 0 0 0 0 0 0 0 0 0 0 0 0 0 0 0 0 0 0 0 0 0 0 0 0 0 0 0 0 0 0 0 0 0 0 0 0 0 0 0 0 0 0 

