# vtk DataFile Version 3.0
Generated by GMDS VTK Writer

ASCII
DATASET UNSTRUCTURED_GRID
POINTS 215 float
0 10 0
10 10 0
10 0 0
0 0 10
0 10 10
10 10 10
10 0 10
0 1 0
0 1 10
10 1 10
10 1 0
0 0 1
10 0 1
10 1 1
0 1 1
10 10 1
0 10 1
1 0 0
1 1 0
1 1 1
1 0 1
1 1 10
1 0 10
1 10 0
1 10 1
1 10 10
0 0 4
0 1 4
1 1 4
1 0 4
10 1 4
10 0 4
0 10 4
1 10 4
10 10 4
10 4 4
1 4 4
1 4 1
10 4 1
1 4 0
10 4 0
10 4 10
1 4 10
0 4 0
0 4 1
0 4 4
0 4 10
4 1 4
4 0 4
4 0 1
4 1 1
4 1 10
4 0 10
4 4 0
4 4 1
4 10 1
4 10 0
4 1 0
4 0 0
4 4 4
4 10 4
4 4 10
4 10 10
6 1 10
6 0 10
6 0 4
6 1 4
6 0 1
6 1 1
6 4 0
6 4 1
6 10 1
6 10 0
6 1 0
6 0 0
6 4 4
6 10 4
6 4 10
6 10 10
1 6 1
1 6 0
4 6 0
4 6 1
6 6 0
6 6 1
10 6 1
10 6 0
0 6 0
0 6 1
0 6 4
1 6 4
0 6 10
1 6 10
4 6 4
4 6 10
6 6 4
10 6 4
6 6 10
10 6 10
0 0 6
0 1 6
1 1 6
1 0 6
4 0 6
4 1 6
6 1 6
6 0 6
10 0 6
10 1 6
1 4 6
0 4 6
4 4 6
6 4 6
10 4 6
0 6 6
1 6 6
0 10 6
1 10 6
4 6 6
4 10 6
6 6 6
6 10 6
10 6 6
10 10 6
4 1 8
4 0 8
6 0 8
6 1 8
10 0 8
10 1 8
1 1 8
1 0 8
0 0 8
0 1 8
1 4 8
0 4 8
4 4 8
6 4 8
10 4 8
0 6 8
1 6 8
0 10 8
1 10 8
4 6 8
4 10 8
6 6 8
6 10 8
10 6 8
10 10 8
6 8 1
6 8 0
10 8 0
10 8 1
4 8 1
4 8 0
0 8 0
0 8 1
1 8 1
1 8 0
0 8 4
1 8 4
4 8 4
6 8 4
10 8 4
1 8 6
0 8 6
4 8 6
6 8 6
10 8 6
1 8 8
0 8 8
1 8 10
0 8 10
4 8 8
4 8 10
6 8 8
6 8 10
10 8 8
10 8 10
8 1 4
8 0 4
8 0 1
8 1 1
8 1 6
8 0 6
8 4 0
8 4 1
8 6 1
8 6 0
8 1 0
8 0 0
8 4 4
8 6 4
8 1 8
8 0 8
8 0 10
8 1 10
8 4 6
8 6 6
8 8 1
8 8 0
8 10 1
8 10 0
8 4 8
8 4 10
8 6 8
8 6 10
8 10 4
8 8 4
8 10 6
8 8 6
8 10 8
8 8 8
8 10 10
8 8 10

CELLS 121 1089
8 26 27 28 29 11 14 19 20 
8 57 50 54 53 73 68 70 69 
8 28 36 59 47 101 109 111 104 
8 24 33 60 55 157 160 161 153 
8 47 48 49 50 66 65 67 68 
8 28 29 20 19 47 48 49 50 
8 183 184 194 193 108 107 128 129 
8 45 36 37 44 89 90 79 88 
8 43 44 37 39 87 88 79 80 
8 124 136 137 127 51 61 77 63 
8 104 111 112 105 124 136 137 127 
8 7 14 19 18 43 44 37 39 
8 27 28 36 45 100 101 109 110 
8 27 28 19 14 45 36 37 44 
8 130 134 136 124 21 42 61 51 
8 47 48 65 66 104 103 106 105 
8 18 19 37 39 57 50 54 53 
8 66 75 112 105 179 191 197 183 
8 17 18 19 20 58 57 50 49 
8 53 54 70 69 81 82 84 83 
8 179 191 197 183 30 35 113 108 
8 19 28 36 37 50 47 59 54 
8 101 109 111 104 130 134 136 124 
8 193 194 195 196 129 128 6 9 
8 37 39 53 54 79 80 81 82 
8 153 161 162 149 82 93 95 84 
8 28 29 48 47 101 102 103 104 
8 50 47 59 54 68 66 75 70 
8 133 130 134 135 8 21 42 46 
8 100 101 109 110 133 130 134 135 
8 55 60 76 71 153 161 162 149 
8 26 27 28 29 99 100 101 102 
8 105 106 126 127 183 184 194 193 
8 132 133 130 131 3 8 21 22 
8 99 100 101 102 132 133 130 131 
8 36 37 54 59 90 79 82 93 
8 127 126 64 63 193 194 195 196 
8 130 131 125 124 21 22 52 51 
8 101 102 103 104 130 131 125 124 
8 54 59 75 70 82 93 95 84 
8 186 191 192 187 38 35 96 85 
8 70 75 95 84 186 191 192 187 
8 124 125 126 127 51 52 64 63 
8 104 103 106 105 124 125 126 127 
8 47 59 75 66 104 111 112 105 
8 158 157 153 154 80 79 82 81 
8 23 24 55 56 158 157 153 154 
8 36 45 89 90 109 110 114 115 
8 159 160 157 156 89 90 79 88 
8 182 179 191 186 13 30 35 38 
8 32 33 24 16 159 160 157 156 
8 36 59 93 90 109 111 118 115 
8 155 156 157 158 87 88 79 80 
8 68 66 75 70 182 179 191 186 
8 0 16 24 23 155 156 157 158 
8 59 75 95 93 111 112 120 118 
8 153 154 150 149 82 81 83 84 
8 190 189 182 181 2 10 13 12 
8 55 56 72 71 153 154 150 149 
8 74 73 68 67 190 189 182 181 
8 109 110 114 115 134 135 139 140 
8 134 135 139 140 42 46 91 92 
8 189 182 186 185 10 13 38 40 
8 73 68 70 69 189 182 186 185 
8 109 111 118 115 134 136 143 140 
8 134 136 143 140 42 61 94 92 
8 185 186 187 188 40 38 85 86 
8 69 70 84 83 185 186 187 188 
8 111 112 120 118 136 137 145 143 
8 136 137 145 143 61 77 97 94 
8 180 179 183 184 31 30 108 107 
8 65 66 105 106 180 179 183 184 
8 179 180 181 182 30 31 12 13 
8 66 65 67 68 179 180 181 182 
8 32 33 117 116 159 160 164 165 
8 159 160 164 165 89 90 115 114 
8 33 60 119 117 160 161 166 164 
8 160 161 166 164 90 93 118 115 
8 60 76 121 119 161 162 167 166 
8 161 162 167 166 93 95 120 118 
8 116 117 142 141 165 164 169 170 
8 165 164 169 170 114 115 140 139 
8 141 142 25 4 170 169 171 172 
8 170 169 171 172 139 140 92 91 
8 117 119 144 142 164 166 173 169 
8 164 166 173 169 115 118 143 140 
8 142 144 62 25 169 173 174 171 
8 169 173 174 171 140 143 94 92 
8 119 121 146 144 166 167 175 173 
8 166 167 175 173 118 120 145 143 
8 144 146 78 62 173 175 176 174 
8 173 175 176 174 143 145 97 94 
8 75 95 120 112 191 192 198 197 
8 191 192 198 197 35 96 122 113 
8 149 150 83 84 199 200 188 187 
8 199 200 188 187 152 151 86 85 
8 71 72 150 149 201 202 200 199 
8 201 202 200 199 15 1 151 152 
8 105 112 137 127 183 197 203 193 
8 183 197 203 193 108 113 138 129 
8 127 137 77 63 193 203 204 196 
8 193 203 204 196 129 138 41 9 
8 112 120 145 137 197 198 205 203 
8 197 198 205 203 113 122 147 138 
8 137 145 97 77 203 205 206 204 
8 203 205 206 204 138 147 98 41 
8 71 76 162 149 201 207 208 199 
8 201 207 208 199 15 34 163 152 
8 199 208 192 187 152 163 96 85 
8 76 121 167 162 207 209 210 208 
8 207 209 210 208 34 123 168 163 
8 162 167 120 95 208 210 198 192 
8 208 210 198 192 163 168 122 96 
8 121 146 175 167 209 211 212 210 
8 209 211 212 210 123 148 177 168 
8 167 175 145 120 210 212 205 198 
8 210 212 205 198 168 177 147 122 
8 78 146 175 176 213 211 212 214 
8 213 211 212 214 5 148 177 178 
8 176 175 145 97 214 212 205 206 
8 214 212 205 206 178 177 147 98 

CELL_TYPES 121
12 
12 
12 
12 
12 
12 
12 
12 
12 
12 
12 
12 
12 
12 
12 
12 
12 
12 
12 
12 
12 
12 
12 
12 
12 
12 
12 
12 
12 
12 
12 
12 
12 
12 
12 
12 
12 
12 
12 
12 
12 
12 
12 
12 
12 
12 
12 
12 
12 
12 
12 
12 
12 
12 
12 
12 
12 
12 
12 
12 
12 
12 
12 
12 
12 
12 
12 
12 
12 
12 
12 
12 
12 
12 
12 
12 
12 
12 
12 
12 
12 
12 
12 
12 
12 
12 
12 
12 
12 
12 
12 
12 
12 
12 
12 
12 
12 
12 
12 
12 
12 
12 
12 
12 
12 
12 
12 
12 
12 
12 
12 
12 
12 
12 
12 
12 
12 
12 
12 
12 
12 
POINT_DATA 215
SCALARS GMDS_ID int 1
LOOKUP_TABLE default
1 2 3 4 5 6 7 8 9 10 11 12 13 14 15 16 17 18 19 20 21 22 23 24 25 26 27 28 29 30 31 32 33 34 35 36 37 38 39 40 41 42 43 44 45 46 47 48 49 50 51 52 53 54 55 56 57 58 59 60 61 62 63 64 65 66 67 68 69 70 71 72 73 74 75 76 77 78 79 80 81 82 83 84 85 86 87 88 89 90 91 92 93 94 95 96 97 98 99 100 101 102 103 104 105 106 107 108 109 110 111 112 113 114 115 116 117 118 119 120 121 122 123 124 125 126 127 128 129 130 131 132 133 134 135 136 137 138 139 140 141 142 143 144 145 146 147 148 149 150 151 152 153 154 155 156 157 158 159 160 161 162 163 164 165 166 167 168 169 170 171 172 173 174 175 176 177 178 179 180 181 182 183 184 185 186 187 188 189 190 191 192 193 194 195 196 197 198 199 200 201 202 203 204 205 206 207 208 209 210 211 212 213 214 215 
SCALARS geom_link_dim_0 int 1
LOOKUP_TABLE default
0 0 0 0 0 0 0 0 0 0 0 0 0 0 0 0 0 0 0 0 0 0 0 0 0 0 0 0 0 0 0 0 0 0 0 0 0 0 0 0 0 0 0 0 0 0 0 0 0 0 0 0 0 0 0 0 0 0 0 0 0 0 0 0 0 0 0 0 0 0 0 0 0 0 0 0 0 0 0 0 0 0 0 0 0 0 0 0 0 0 0 0 0 0 0 0 0 0 0 0 0 0 0 0 0 0 0 0 0 0 0 0 0 0 0 0 0 0 0 0 0 0 0 0 0 0 0 0 0 0 0 0 0 0 0 0 0 0 0 0 0 0 0 0 0 0 0 0 0 0 0 0 0 0 0 0 0 0 0 0 0 0 0 0 0 0 0 0 0 0 0 0 0 0 0 0 0 0 0 0 0 0 0 0 0 0 0 0 0 0 0 0 0 0 0 0 0 0 0 0 0 0 0 0 0 0 0 0 0 0 0 0 0 0 0 
SCALARS geom_link_id_0 int 1
LOOKUP_TABLE default
0 0 0 0 0 0 0 0 0 0 0 0 0 0 0 0 0 0 0 0 0 0 0 0 0 0 0 0 0 0 0 0 0 0 0 0 0 0 0 0 0 0 0 0 0 0 0 0 0 0 0 0 0 0 0 0 0 0 0 0 0 0 0 0 0 0 0 0 0 0 0 0 0 0 0 0 0 0 0 0 0 0 0 0 0 0 0 0 0 0 0 0 0 0 0 0 0 0 0 0 0 0 0 0 0 0 0 0 0 0 0 0 0 0 0 0 0 0 0 0 0 0 0 0 0 0 0 0 0 0 0 0 0 0 0 0 0 0 0 0 0 0 0 0 0 0 0 0 0 0 0 0 0 0 0 0 0 0 0 0 0 0 0 0 0 0 0 0 0 0 0 0 0 0 0 0 0 0 0 0 0 0 0 0 0 0 0 0 0 0 0 0 0 0 0 0 0 0 0 0 0 0 0 0 0 0 0 0 0 0 0 0 0 0 0 


CELL_DATA 121
SCALARS GMDS_ID int 1
LOOKUP_TABLE default
4 6 7 9 11 12 13 14 15 16 17 18 19 20 22 23 24 25 26 27 29 30 32 33 35 37 38 39 41 42 43 44 45 46 47 48 49 50 51 52 53 55 58 59 60 61 63 64 65 66 67 68 69 70 71 72 73 74 75 78 80 81 82 83 84 85 86 87 88 89 90 91 94 95 96 97 98 99 100 101 104 105 106 107 108 109 110 111 112 113 114 115 120 121 122 123 124 125 126 127 128 129 130 131 132 133 134 135 137 138 139 140 141 142 143 144 145 146 147 148 149 

SCALARS geom_link_dim_0 int 1
LOOKUP_TABLE default
0 0 0 0 0 0 0 0 0 0 0 0 0 0 0 0 0 0 0 0 0 0 0 0 0 0 0 0 0 0 0 0 0 0 0 0 0 0 0 0 0 0 0 0 0 0 0 0 0 0 0 0 0 0 0 0 0 0 0 0 0 0 0 0 0 0 0 0 0 0 0 0 0 0 0 0 0 0 0 0 0 0 0 0 0 0 0 0 0 0 0 0 0 0 0 0 0 0 0 0 0 0 0 0 0 0 0 0 0 0 0 0 0 0 0 0 0 0 0 0 0 

SCALARS geom_link_id_0 int 1
LOOKUP_TABLE default
0 0 0 0 0 0 0 0 0 0 0 0 0 0 0 0 0 0 0 0 0 0 0 0 0 0 0 0 0 0 0 0 0 0 0 0 0 0 0 0 0 0 0 0 0 0 0 0 0 0 0 0 0 0 0 0 0 0 0 0 0 0 0 0 0 0 0 0 0 0 0 0 0 0 0 0 0 0 0 0 0 0 0 0 0 0 0 0 0 0 0 0 0 0 0 0 0 0 0 0 0 0 0 0 0 0 0 0 0 0 0 0 0 0 0 0 0 0 0 0 0 

