# vtk DataFile Version 3.0
Generated by GMDS VTK Writer

ASCII
DATASET UNSTRUCTURED_GRID
POINTS 216 float
0 0 0
0 10 0
10 10 0
10 0 0
0 0 10
0 10 10
10 10 10
10 0 10
0 1 0
0 1 10
10 1 10
10 1 0
0 0 1
10 0 1
10 1 1
0 1 1
10 10 1
0 10 1
1 0 0
1 1 0
1 1 1
1 0 1
1 1 10
1 0 10
1 10 0
1 10 1
1 10 10
0 0 4
0 1 4
1 1 4
1 0 4
10 1 4
10 0 4
0 10 4
1 10 4
10 10 4
10 4 4
1 4 4
1 4 1
10 4 1
1 4 0
10 4 0
10 4 10
1 4 10
0 4 0
0 4 1
0 4 4
0 4 10
4 1 4
4 0 4
4 0 1
4 1 1
4 1 10
4 0 10
4 4 0
4 4 1
4 10 1
4 10 0
4 1 0
4 0 0
4 4 4
4 10 4
4 4 10
4 10 10
6 1 10
6 0 10
6 0 4
6 1 4
6 0 1
6 1 1
6 4 0
6 4 1
6 10 1
6 10 0
6 1 0
6 0 0
6 4 4
6 10 4
6 4 10
6 10 10
1 6 1
1 6 0
4 6 0
4 6 1
6 6 0
6 6 1
10 6 1
10 6 0
0 6 0
0 6 1
0 6 4
1 6 4
0 6 10
1 6 10
4 6 4
4 6 10
6 6 4
10 6 4
6 6 10
10 6 10
0 0 6
0 1 6
1 1 6
1 0 6
4 0 6
4 1 6
6 1 6
6 0 6
10 0 6
10 1 6
1 4 6
0 4 6
4 4 6
6 4 6
10 4 6
0 6 6
1 6 6
0 10 6
1 10 6
4 6 6
4 10 6
6 6 6
6 10 6
10 6 6
10 10 6
4 1 8
4 0 8
6 0 8
6 1 8
10 0 8
10 1 8
1 1 8
1 0 8
0 0 8
0 1 8
1 4 8
0 4 8
4 4 8
6 4 8
10 4 8
0 6 8
1 6 8
0 10 8
1 10 8
4 6 8
4 10 8
6 6 8
6 10 8
10 6 8
10 10 8
6 8 1
6 8 0
10 8 0
10 8 1
4 8 1
4 8 0
0 8 0
0 8 1
1 8 1
1 8 0
0 8 4
1 8 4
4 8 4
6 8 4
10 8 4
1 8 6
0 8 6
4 8 6
6 8 6
10 8 6
1 8 8
0 8 8
1 8 10
0 8 10
4 8 8
4 8 10
6 8 8
6 8 10
10 8 8
10 8 10
8 1 4
8 0 4
8 0 1
8 1 1
8 1 6
8 0 6
8 4 0
8 4 1
8 6 1
8 6 0
8 1 0
8 0 0
8 4 4
8 6 4
8 1 8
8 0 8
8 0 10
8 1 10
8 4 6
8 6 6
8 8 1
8 8 0
8 10 1
8 10 0
8 4 8
8 4 10
8 6 8
8 6 10
8 10 4
8 8 4
8 10 6
8 8 6
8 10 8
8 8 8
8 10 10
8 8 10

CELLS 119 1071
8 0 8 15 12 18 19 20 21 
8 27 28 29 30 12 15 20 21 
8 58 51 55 54 74 69 71 70 
8 29 37 60 48 102 110 112 105 
8 25 34 61 56 158 161 162 154 
8 48 49 50 51 67 66 68 69 
8 29 30 21 20 48 49 50 51 
8 184 185 195 194 109 108 129 130 
8 46 37 38 45 90 91 80 89 
8 44 45 38 40 88 89 80 81 
8 125 137 138 128 52 62 78 64 
8 105 112 113 106 125 137 138 128 
8 8 15 20 19 44 45 38 40 
8 28 29 37 46 101 102 110 111 
8 28 29 20 15 46 37 38 45 
8 131 135 137 125 22 43 62 52 
8 48 49 66 67 105 104 107 106 
8 19 20 38 40 58 51 55 54 
8 67 76 113 106 180 192 198 184 
8 18 19 20 21 59 58 51 50 
8 54 55 71 70 82 83 85 84 
8 180 192 198 184 31 36 114 109 
8 102 110 112 105 131 135 137 125 
8 194 195 196 197 130 129 7 10 
8 38 40 54 55 80 81 82 83 
8 154 162 163 150 83 94 96 85 
8 29 30 49 48 102 103 104 105 
8 51 48 60 55 69 67 76 71 
8 134 131 135 136 9 22 43 47 
8 101 102 110 111 134 131 135 136 
8 56 61 77 72 154 162 163 150 
8 27 28 29 30 100 101 102 103 
8 106 107 127 128 184 185 195 194 
8 133 134 131 132 4 9 22 23 
8 100 101 102 103 133 134 131 132 
8 37 38 55 60 91 80 83 94 
8 128 127 65 64 194 195 196 197 
8 131 132 126 125 22 23 53 52 
8 102 103 104 105 131 132 126 125 
8 55 60 76 71 83 94 96 85 
8 187 192 193 188 39 36 97 86 
8 71 76 96 85 187 192 193 188 
8 125 126 127 128 52 53 65 64 
8 105 104 107 106 125 126 127 128 
8 48 60 76 67 105 112 113 106 
8 159 158 154 155 81 80 83 82 
8 24 25 56 57 159 158 154 155 
8 37 46 90 91 110 111 115 116 
8 160 161 158 157 90 91 80 89 
8 183 180 192 187 14 31 36 39 
8 33 34 25 17 160 161 158 157 
8 37 60 94 91 110 112 119 116 
8 156 157 158 159 88 89 80 81 
8 69 67 76 71 183 180 192 187 
8 1 17 25 24 156 157 158 159 
8 60 76 96 94 112 113 121 119 
8 154 155 151 150 83 82 84 85 
8 191 190 183 182 3 11 14 13 
8 56 57 73 72 154 155 151 150 
8 75 74 69 68 191 190 183 182 
8 110 111 115 116 135 136 140 141 
8 135 136 140 141 43 47 92 93 
8 190 183 187 186 11 14 39 41 
8 74 69 71 70 190 183 187 186 
8 110 112 119 116 135 137 144 141 
8 135 137 144 141 43 62 95 93 
8 186 187 188 189 41 39 86 87 
8 70 71 85 84 186 187 188 189 
8 112 113 121 119 137 138 146 144 
8 137 138 146 144 62 78 98 95 
8 181 180 184 185 32 31 109 108 
8 66 67 106 107 181 180 184 185 
8 180 181 182 183 31 32 13 14 
8 67 66 68 69 180 181 182 183 
8 33 34 118 117 160 161 165 166 
8 160 161 165 166 90 91 116 115 
8 34 61 120 118 161 162 167 165 
8 161 162 167 165 91 94 119 116 
8 61 77 122 120 162 163 168 167 
8 162 163 168 167 94 96 121 119 
8 117 118 143 142 166 165 170 171 
8 166 165 170 171 115 116 141 140 
8 142 143 26 5 171 170 172 173 
8 171 170 172 173 140 141 93 92 
8 118 120 145 143 165 167 174 170 
8 165 167 174 170 116 119 144 141 
8 143 145 63 26 170 174 175 172 
8 170 174 175 172 141 144 95 93 
8 120 122 147 145 167 168 176 174 
8 167 168 176 174 119 121 146 144 
8 145 147 79 63 174 176 177 175 
8 174 176 177 175 144 146 98 95 
8 76 96 121 113 192 193 199 198 
8 192 193 199 198 36 97 123 114 
8 150 151 84 85 200 201 189 188 
8 200 201 189 188 153 152 87 86 
8 72 73 151 150 202 203 201 200 
8 202 203 201 200 16 2 152 153 
8 106 113 138 128 184 198 204 194 
8 184 198 204 194 109 114 139 130 
8 128 138 78 64 194 204 205 197 
8 194 204 205 197 130 139 42 10 
8 113 121 146 138 198 199 206 204 
8 198 199 206 204 114 123 148 139 
8 138 146 98 78 204 206 207 205 
8 204 206 207 205 139 148 99 42 
8 72 77 163 150 202 208 209 200 
8 202 208 209 200 16 35 164 153 
8 200 209 193 188 153 164 97 86 
8 77 122 168 163 208 210 211 209 
8 208 210 211 209 35 124 169 164 
8 163 168 121 96 209 211 199 193 
8 209 211 199 193 164 169 123 97 
8 122 147 176 168 210 212 213 211 
8 210 212 213 211 124 149 178 169 
8 211 213 206 199 169 178 148 123 
8 79 147 176 177 214 212 213 215 
8 214 212 213 215 6 149 178 179 
8 177 176 146 98 215 213 206 207 

CELL_TYPES 119
12 
12 
12 
12 
12 
12 
12 
12 
12 
12 
12 
12 
12 
12 
12 
12 
12 
12 
12 
12 
12 
12 
12 
12 
12 
12 
12 
12 
12 
12 
12 
12 
12 
12 
12 
12 
12 
12 
12 
12 
12 
12 
12 
12 
12 
12 
12 
12 
12 
12 
12 
12 
12 
12 
12 
12 
12 
12 
12 
12 
12 
12 
12 
12 
12 
12 
12 
12 
12 
12 
12 
12 
12 
12 
12 
12 
12 
12 
12 
12 
12 
12 
12 
12 
12 
12 
12 
12 
12 
12 
12 
12 
12 
12 
12 
12 
12 
12 
12 
12 
12 
12 
12 
12 
12 
12 
12 
12 
12 
12 
12 
12 
12 
12 
12 
12 
12 
12 
12 
POINT_DATA 216
SCALARS GMDS_ID int 1
LOOKUP_TABLE default
0 1 2 3 4 5 6 7 8 9 10 11 12 13 14 15 16 17 18 19 20 21 22 23 24 25 26 27 28 29 30 31 32 33 34 35 36 37 38 39 40 41 42 43 44 45 46 47 48 49 50 51 52 53 54 55 56 57 58 59 60 61 62 63 64 65 66 67 68 69 70 71 72 73 74 75 76 77 78 79 80 81 82 83 84 85 86 87 88 89 90 91 92 93 94 95 96 97 98 99 100 101 102 103 104 105 106 107 108 109 110 111 112 113 114 115 116 117 118 119 120 121 122 123 124 125 126 127 128 129 130 131 132 133 134 135 136 137 138 139 140 141 142 143 144 145 146 147 148 149 150 151 152 153 154 155 156 157 158 159 160 161 162 163 164 165 166 167 168 169 170 171 172 173 174 175 176 177 178 179 180 181 182 183 184 185 186 187 188 189 190 191 192 193 194 195 196 197 198 199 200 201 202 203 204 205 206 207 208 209 210 211 212 213 214 215 
SCALARS geom_link_dim_0 int 1
LOOKUP_TABLE default
0 0 0 0 0 0 0 0 0 0 0 0 0 0 0 0 0 0 0 0 0 0 0 0 0 0 0 0 0 0 0 0 0 0 0 0 0 0 0 0 0 0 0 0 0 0 0 0 0 0 0 0 0 0 0 0 0 0 0 0 0 0 0 0 0 0 0 0 0 0 0 0 0 0 0 0 0 0 0 0 0 0 0 0 0 0 0 0 0 0 0 0 0 0 0 0 0 0 0 0 0 0 0 0 0 0 0 0 0 0 0 0 0 0 0 0 0 0 0 0 0 0 0 0 0 0 0 0 0 0 0 0 0 0 0 0 0 0 0 0 0 0 0 0 0 0 0 0 0 0 0 0 0 0 0 0 0 0 0 0 0 0 0 0 0 0 0 0 0 0 0 0 0 0 0 0 0 0 0 0 0 0 0 0 0 0 0 0 0 0 0 0 0 0 0 0 0 0 0 0 0 0 0 0 0 0 0 0 0 0 0 0 0 0 0 0 
SCALARS geom_link_id_0 int 1
LOOKUP_TABLE default
0 0 0 0 0 0 0 0 0 0 0 0 0 0 0 0 0 0 0 0 0 0 0 0 0 0 0 0 0 0 0 0 0 0 0 0 0 0 0 0 0 0 0 0 0 0 0 0 0 0 0 0 0 0 0 0 0 0 0 0 0 0 0 0 0 0 0 0 0 0 0 0 0 0 0 0 0 0 0 0 0 0 0 0 0 0 0 0 0 0 0 0 0 0 0 0 0 0 0 0 0 0 0 0 0 0 0 0 0 0 0 0 0 0 0 0 0 0 0 0 0 0 0 0 0 0 0 0 0 0 0 0 0 0 0 0 0 0 0 0 0 0 0 0 0 0 0 0 0 0 0 0 0 0 0 0 0 0 0 0 0 0 0 0 0 0 0 0 0 0 0 0 0 0 0 0 0 0 0 0 0 0 0 0 0 0 0 0 0 0 0 0 0 0 0 0 0 0 0 0 0 0 0 0 0 0 0 0 0 0 0 0 0 0 0 0 


CELL_DATA 119
SCALARS GMDS_ID int 1
LOOKUP_TABLE default
2 4 6 7 9 11 12 13 14 15 16 17 18 19 20 22 23 24 25 26 27 29 32 33 35 37 38 39 41 42 43 44 45 46 47 48 49 50 51 52 53 55 58 59 60 61 63 64 65 66 67 68 69 70 71 72 73 74 75 78 80 81 82 83 84 85 86 87 88 89 90 91 94 95 96 97 98 99 100 101 104 105 106 107 108 109 110 111 112 113 114 115 120 121 122 123 124 125 126 127 128 129 130 131 132 133 134 135 137 138 139 140 141 142 143 145 146 147 148 

SCALARS geom_link_dim_0 int 1
LOOKUP_TABLE default
0 0 0 0 0 0 0 0 0 0 0 0 0 0 0 0 0 0 0 0 0 0 0 0 0 0 0 0 0 0 0 0 0 0 0 0 0 0 0 0 0 0 0 0 0 0 0 0 0 0 0 0 0 0 0 0 0 0 0 0 0 0 0 0 0 0 0 0 0 0 0 0 0 0 0 0 0 0 0 0 0 0 0 0 0 0 0 0 0 0 0 0 0 0 0 0 0 0 0 0 0 0 0 0 0 0 0 0 0 0 0 0 0 0 0 0 0 0 0 

SCALARS geom_link_id_0 int 1
LOOKUP_TABLE default
0 0 0 0 0 0 0 0 0 0 0 0 0 0 0 0 0 0 0 0 0 0 0 0 0 0 0 0 0 0 0 0 0 0 0 0 0 0 0 0 0 0 0 0 0 0 0 0 0 0 0 0 0 0 0 0 0 0 0 0 0 0 0 0 0 0 0 0 0 0 0 0 0 0 0 0 0 0 0 0 0 0 0 0 0 0 0 0 0 0 0 0 0 0 0 0 0 0 0 0 0 0 0 0 0 0 0 0 0 0 0 0 0 0 0 0 0 0 0 

