# vtk DataFile Version 3.0
Generated by GMDS VTK Writer

ASCII
DATASET UNSTRUCTURED_GRID
POINTS 216 float
0 0 0
0 10 0
10 10 0
10 0 0
0 0 10
0 10 10
10 10 10
10 0 10
0 1 0
0 1 10
10 1 10
10 1 0
0 6 0
0 6 10
10 6 10
10 6 0
6 6 0
6 6 10
6 10 10
6 10 0
6 1 0
6 1 10
6 0 0
6 0 10
0 10 1
0 6 1
6 6 1
6 10 1
10 6 1
10 10 1
0 1 1
6 1 1
10 1 1
0 0 1
6 0 1
10 0 1
0 10 8
0 6 8
6 6 8
6 10 8
10 6 8
10 10 8
0 1 8
6 1 8
10 1 8
0 0 8
6 0 8
10 0 8
8 6 0
8 10 0
8 10 1
8 6 1
8 6 8
8 10 8
8 10 10
8 6 10
8 1 0
8 1 1
8 0 0
8 0 1
8 1 8
8 1 10
8 0 8
8 0 10
1 6 1
1 1 1
1 1 8
1 6 8
1 10 0
1 6 0
1 10 1
1 10 8
1 6 10
1 10 10
1 1 0
1 0 0
1 0 1
1 1 10
1 0 8
1 0 10
8 8 10
8 8 8
10 8 8
10 8 10
1 8 10
1 8 8
6 8 8
6 8 10
0 8 10
0 8 8
1 8 0
1 8 1
6 8 1
6 8 0
0 8 0
0 8 1
8 8 0
8 8 1
10 8 1
10 8 0
1 6 6
1 1 6
6 1 6
6 6 6
0 6 6
0 1 6
8 1 6
8 6 6
10 1 6
10 6 6
6 0 6
8 0 6
10 0 6
0 0 6
1 0 6
1 8 6
6 8 6
1 10 6
6 10 6
0 8 6
0 10 6
8 8 6
10 8 6
8 10 6
10 10 6
1 6 4
1 1 4
6 1 4
6 6 4
0 6 4
0 1 4
8 1 4
8 6 4
10 1 4
10 6 4
6 0 4
8 0 4
10 0 4
0 0 4
1 0 4
1 8 4
6 8 4
1 10 4
6 10 4
0 8 4
0 10 4
8 8 4
10 8 4
8 10 4
10 10 4
4 8 8
4 8 10
4 10 10
4 10 8
4 6 8
4 6 10
4 6 6
4 1 6
4 1 8
4 1 0
4 6 0
4 6 1
4 1 1
4 0 0
4 0 1
4 1 10
4 0 8
4 0 10
4 8 0
4 8 1
4 10 0
4 10 1
4 6 4
4 1 4
4 0 6
4 8 6
4 10 6
4 0 4
4 8 4
4 10 4
8 4 10
8 4 8
10 4 8
10 4 10
0 4 10
0 4 8
1 4 8
1 4 10
6 4 10
6 4 8
10 4 6
8 4 6
6 4 6
0 4 6
1 4 6
0 4 0
0 4 1
1 4 1
1 4 0
8 4 0
8 4 1
10 4 1
10 4 0
6 4 0
6 4 1
4 4 1
4 4 0
10 4 4
8 4 4
6 4 4
0 4 4
1 4 4
4 4 8
4 4 6
4 4 10
4 4 4

CELLS 124 1116
8 161 160 168 169 26 16 93 92 
8 87 86 81 80 18 39 53 54 
8 161 160 16 26 205 206 203 204 
8 12 25 64 69 195 196 197 198 
8 64 69 90 91 161 160 168 169 
8 17 38 52 55 87 86 81 80 
8 88 89 85 84 5 36 71 73 
8 203 204 200 199 20 31 57 56 
8 13 37 67 72 88 89 85 84 
8 106 111 112 108 60 62 47 44 
8 205 206 203 204 162 159 20 31 
8 102 110 111 106 43 46 62 60 
8 158 166 167 165 43 46 23 21 
8 66 78 79 77 158 166 167 165 
8 80 81 82 83 54 53 41 6 
8 55 52 40 14 80 81 82 83 
8 184 185 186 187 9 42 66 77 
8 17 38 52 55 188 189 181 180 
8 20 22 34 31 56 58 59 57 
8 56 58 59 57 11 3 35 32 
8 188 189 181 180 21 43 60 61 
8 130 138 139 126 105 113 114 101 
8 30 33 76 65 130 138 139 126 
8 131 136 137 133 106 111 112 108 
8 43 46 23 21 60 62 63 61 
8 60 62 63 61 44 47 7 10 
8 16 26 51 48 203 204 200 199 
8 0 8 30 33 75 74 65 76 
8 199 200 201 202 56 57 32 11 
8 48 51 28 15 199 200 201 202 
8 57 59 35 32 131 136 137 133 
8 127 135 136 131 102 110 111 106 
8 42 45 4 9 66 78 79 77 
8 195 196 197 198 8 30 65 74 
8 193 194 186 185 105 101 66 42 
8 12 25 64 69 94 95 91 90 
8 94 95 91 90 1 24 70 68 
8 48 51 28 15 96 97 98 99 
8 96 97 98 99 49 50 29 2 
8 16 26 51 48 93 92 97 96 
8 93 92 97 96 19 27 50 49 
8 31 34 59 57 127 135 136 131 
8 104 100 67 37 193 194 186 185 
8 163 159 162 164 22 20 31 34 
8 105 113 114 101 42 45 78 66 
8 75 74 65 76 163 159 162 164 
8 103 107 52 38 192 191 181 189 
8 190 191 181 182 108 106 60 44 
8 109 107 52 40 190 191 181 182 
8 104 100 115 119 37 67 85 89 
8 119 115 117 120 89 85 71 36 
8 154 155 151 150 38 17 87 86 
8 109 107 121 122 40 52 81 82 
8 67 72 84 85 154 155 151 150 
8 122 121 123 124 82 81 53 41 
8 150 151 152 153 86 87 18 39 
8 192 191 181 189 102 106 60 43 
8 85 84 73 71 150 151 152 153 
8 116 121 123 118 86 81 53 39 
8 13 37 67 72 184 185 186 187 
8 180 181 182 183 61 60 44 10 
8 55 52 40 14 180 181 182 183 
8 25 64 91 95 129 125 140 144 
8 129 125 140 144 104 100 115 119 
8 95 91 70 24 144 140 142 145 
8 144 140 142 145 119 115 117 120 
8 28 51 97 98 134 132 146 147 
8 134 132 146 147 109 107 121 122 
8 98 97 50 29 147 146 148 149 
8 147 146 148 149 122 121 123 124 
8 26 51 97 92 128 132 146 141 
8 128 132 146 141 103 107 121 116 
8 92 97 50 27 141 146 148 143 
8 141 146 148 143 116 121 123 118 
8 91 90 68 70 169 168 170 171 
8 169 168 170 171 92 93 19 27 
8 101 114 78 66 157 174 166 158 
8 157 174 166 158 102 110 46 43 
8 100 115 85 67 156 175 150 154 
8 156 175 150 154 103 116 86 38 
8 117 115 85 71 176 175 150 153 
8 176 175 150 153 118 116 86 39 
8 65 76 139 126 162 164 177 173 
8 162 164 177 173 31 34 135 127 
8 126 139 114 101 173 177 174 157 
8 173 177 174 157 127 135 110 102 
8 64 91 140 125 161 169 178 172 
8 161 169 178 172 26 92 141 128 
8 125 140 115 100 172 178 175 156 
8 172 178 175 156 128 141 116 103 
8 70 91 140 142 171 169 178 179 
8 171 169 178 179 27 92 141 143 
8 142 140 115 117 179 178 175 176 
8 179 178 175 176 143 141 116 118 
8 134 132 107 109 207 208 191 190 
8 207 208 191 190 133 131 106 108 
8 28 51 132 134 201 200 208 207 
8 201 200 208 207 32 57 131 133 
8 64 69 160 161 197 198 206 205 
8 197 198 206 205 65 74 159 162 
8 128 132 107 103 209 208 191 192 
8 209 208 191 192 127 131 106 102 
8 26 51 132 128 204 200 208 209 
8 204 200 208 209 31 57 131 127 
8 129 125 100 104 210 211 194 193 
8 210 211 194 193 130 126 101 105 
8 25 64 125 129 196 197 211 210 
8 196 197 211 210 30 65 126 130 
8 154 156 103 38 212 213 192 189 
8 212 213 192 189 158 157 102 43 
8 67 100 156 154 186 194 213 212 
8 186 194 213 212 66 101 157 158 
8 154 155 17 38 212 214 188 189 
8 212 214 188 189 158 165 21 43 
8 67 72 155 154 186 187 214 212 
8 186 187 214 212 66 77 165 158 
8 100 125 172 156 194 211 215 213 
8 194 211 215 213 101 126 173 157 
8 156 172 128 103 213 215 209 192 
8 213 215 209 192 157 173 127 102 
8 64 125 172 161 197 211 215 205 
8 197 211 215 205 65 126 173 162 
8 161 172 128 26 205 215 209 204 
8 205 215 209 204 162 173 127 31 

CELL_TYPES 124
12 
12 
12 
12 
12 
12 
12 
12 
12 
12 
12 
12 
12 
12 
12 
12 
12 
12 
12 
12 
12 
12 
12 
12 
12 
12 
12 
12 
12 
12 
12 
12 
12 
12 
12 
12 
12 
12 
12 
12 
12 
12 
12 
12 
12 
12 
12 
12 
12 
12 
12 
12 
12 
12 
12 
12 
12 
12 
12 
12 
12 
12 
12 
12 
12 
12 
12 
12 
12 
12 
12 
12 
12 
12 
12 
12 
12 
12 
12 
12 
12 
12 
12 
12 
12 
12 
12 
12 
12 
12 
12 
12 
12 
12 
12 
12 
12 
12 
12 
12 
12 
12 
12 
12 
12 
12 
12 
12 
12 
12 
12 
12 
12 
12 
12 
12 
12 
12 
12 
12 
12 
12 
12 
12 
POINT_DATA 216
SCALARS GMDS_ID int 1
LOOKUP_TABLE default
0 1 2 3 4 5 6 7 8 9 10 11 12 13 14 15 16 17 18 19 20 21 22 23 24 25 26 27 28 29 30 31 32 33 34 35 36 37 38 39 40 41 42 43 44 45 46 47 48 49 50 51 52 53 54 55 56 57 58 59 60 61 62 63 64 65 66 67 68 69 70 71 72 73 74 75 76 77 78 79 80 81 82 83 84 85 86 87 88 89 90 91 92 93 94 95 96 97 98 99 100 101 102 103 104 105 106 107 108 109 110 111 112 113 114 115 116 117 118 119 120 121 122 123 124 125 126 127 128 129 130 131 132 133 134 135 136 137 138 139 140 141 142 143 144 145 146 147 148 149 150 151 152 153 154 155 156 157 158 159 160 161 162 163 164 165 166 167 168 169 170 171 172 173 174 175 176 177 178 179 180 181 182 183 184 185 186 187 188 189 190 191 192 193 194 195 196 197 198 199 200 201 202 203 204 205 206 207 208 209 210 211 212 213 214 215 
SCALARS geom_link_dim int 1
LOOKUP_TABLE default
1 1 1 1 1 1 1 1 2 2 2 2 2 2 2 2 3 3 2 2 3 3 2 2 2 3 0 3 3 2 3 0 3 2 3 2 2 3 1 3 3 2 3 0 3 2 3 2 3 2 3 0 1 3 2 3 3 0 2 3 0 3 3 2 0 0 0 0 2 3 3 3 3 2 3 2 3 3 3 2 3 1 3 2 3 0 1 3 2 3 3 0 0 3 2 3 3 0 3 2 0 0 0 1 3 3 0 1 3 3 3 3 2 2 3 0 1 3 3 3 2 1 3 3 2 0 0 0 0 3 3 0 0 3 3 3 3 2 2 3 0 0 3 3 3 2 0 3 3 2 0 3 2 3 0 3 0 0 0 3 3 0 0 2 3 3 3 2 3 0 2 3 0 0 3 0 3 3 0 3 3 0 3 2 2 3 0 3 3 0 3 0 0 3 0 2 3 0 3 3 0 3 2 3 0 0 3 3 0 0 3 0 0 0 3 0 
SCALARS geom_link_id int 1
LOOKUP_TABLE default
10 12 16 13 9 11 15 14 19 29 26 31 19 29 26 31 11 18 25 30 11 18 20 28 32 10 0 17 13 27 10 0 13 21 12 33 32 10 1 17 13 27 10 0 13 21 12 33 11 30 17 0 5 17 25 18 11 0 20 12 0 18 12 28 0 0 0 0 30 11 17 17 18 25 11 20 12 18 12 28 18 7 13 26 18 0 3 18 29 10 11 0 0 11 19 10 11 0 13 31 0 0 0 2 10 10 0 6 13 13 12 12 33 21 12 0 4 17 17 10 32 8 13 17 27 0 0 0 0 10 10 0 0 13 13 12 12 33 21 12 0 0 17 17 10 32 0 13 17 27 0 18 25 17 0 18 0 0 0 11 11 0 0 20 12 18 12 28 11 0 30 17 0 0 12 0 17 12 0 17 18 -1 13 26 29 10 -1 18 18 -1 13 -1 -1 10 -1 19 10 -1 11 11 -1 13 31 11 -1 -1 11 13 -1 -1 10 -1 -1 -1 18 -1 


CELL_DATA 124
SCALARS GMDS_ID int 1
LOOKUP_TABLE default
0 1 2 4 6 7 8 9 10 11 14 16 17 19 20 21 22 23 26 27 28 29 32 33 34 35 36 37 38 40 41 42 43 44 45 46 47 48 49 50 51 52 57 60 61 62 63 65 67 69 71 72 73 74 75 76 77 78 79 80 81 82 83 84 85 86 87 88 89 90 91 92 93 94 95 96 101 102 103 104 105 106 107 108 109 110 111 112 113 114 115 116 117 118 119 120 121 122 123 124 125 126 127 128 129 130 131 132 133 134 135 136 137 138 139 140 141 142 143 144 145 146 147 148 

SCALARS is_in int 1
LOOKUP_TABLE default
1 1 1 1 1 1 1 1 1 1 1 1 1 1 1 1 1 1 1 1 1 1 1 1 1 1 1 1 1 1 1 1 1 1 1 1 1 1 1 1 1 1 1 1 1 1 1 1 1 1 1 1 1 1 1 1 1 1 1 1 1 1 1 1 1 1 1 1 1 1 1 1 1 1 1 1 1 1 1 1 1 1 1 1 1 1 1 1 1 1 1 1 1 1 1 1 1 1 1 1 1 1 1 1 1 1 1 1 1 1 1 1 1 1 1 1 1 1 1 1 1 0 1 1 

SCALARS geom_link_dim int 1
LOOKUP_TABLE default
0 0 0 0 0 0 0 0 0 0 0 0 0 0 0 0 0 0 0 0 0 0 0 0 0 0 0 0 0 0 0 0 0 0 0 0 0 0 0 0 0 0 0 0 0 0 0 0 0 0 0 0 0 0 0 0 0 0 0 0 0 0 0 0 0 0 0 0 0 0 0 0 0 0 0 0 0 0 0 0 0 0 0 0 0 0 0 0 0 0 0 0 0 0 0 0 0 0 0 0 0 0 0 0 0 0 0 0 0 0 0 0 0 0 0 0 0 0 0 0 0 0 0 0 

SCALARS geom_link_id int 1
LOOKUP_TABLE default
0 0 -1 -1 0 0 0 -1 0 0 -1 0 0 0 0 0 -1 -1 0 0 -1 0 0 0 0 0 -1 0 -1 -1 0 0 0 -1 -1 0 0 0 0 0 0 0 -1 0 0 0 -1 -1 -1 0 0 0 0 0 0 0 -1 0 0 -1 -1 -1 0 0 0 0 0 0 0 0 0 0 0 0 0 0 0 0 0 0 0 0 0 0 0 0 0 0 0 0 0 0 0 0 -1 -1 -1 -1 -1 -1 -1 -1 -1 -1 -1 -1 -1 -1 -1 -1 -1 -1 -1 -1 -1 -1 -1 -1 -1 -1 -1 -1 -1 -1 

