# vtk DataFile Version 3.0
Generated by GMDS VTK Writer

ASCII
DATASET UNSTRUCTURED_GRID
POINTS 150 float
0 0 0
0 10 0
10 10 0
10 0 0
0 0 10
0 10 10
10 10 10
10 0 10
0 4 0
0 4 10
10 4 10
10 4 0
1 0 0
1 0 10
1 4 10
1 4 0
1 10 10
1 10 0
10 0 1
10 4 1
1 4 1
1 0 1
0 4 1
0 0 1
10 10 1
1 10 1
0 10 1
10 1 0
1 1 0
1 1 1
10 1 1
1 1 10
10 1 10
0 1 0
0 1 1
0 1 10
10 0 4
1 0 4
1 1 4
10 1 4
10 10 4
10 4 4
1 4 4
1 10 4
0 4 4
0 10 4
0 0 4
0 1 4
4 10 4
4 4 4
4 4 1
4 10 1
4 10 10
4 4 10
4 1 0
4 1 1
4 4 0
4 0 0
4 0 1
4 0 4
4 1 4
4 0 10
4 1 10
4 10 0
4 6 10
4 6 4
1 6 4
1 6 10
10 6 10
10 6 4
4 6 1
1 6 1
0 6 0
1 6 0
0 6 1
10 6 1
0 6 10
0 6 4
10 6 0
4 6 0
6 1 0
6 1 1
6 4 1
6 4 0
6 0 0
6 0 1
6 0 4
6 1 4
6 0 10
6 1 10
6 6 10
6 6 4
6 4 4
6 4 10
6 10 10
6 10 4
6 10 1
6 6 1
6 10 0
6 6 0
10 0 6
10 1 6
6 1 6
6 0 6
1 6 6
4 6 6
4 4 6
1 4 6
1 10 6
4 10 6
0 0 6
1 0 6
1 1 6
0 1 6
0 4 6
4 0 6
4 1 6
0 10 6
0 6 6
10 4 6
10 6 6
6 6 6
6 4 6
10 10 6
6 10 6
10 0 8
10 1 8
6 1 8
6 0 8
1 6 8
4 6 8
4 4 8
1 4 8
1 10 8
4 10 8
0 0 8
1 0 8
1 1 8
0 1 8
0 4 8
4 0 8
4 1 8
0 10 8
0 6 8
10 4 8
10 6 8
6 6 8
6 4 8
10 10 8
6 10 8

CELLS 80 720
8 4 13 31 35 135 136 137 138 
8 72 73 71 74 8 15 20 22 
8 104 105 106 107 66 65 49 42 
8 54 55 50 56 28 29 20 15 
8 1 17 25 26 72 73 71 74 
8 70 65 66 71 50 49 42 20 
8 51 48 43 25 70 65 66 71 
8 110 111 112 113 46 37 38 47 
8 115 116 112 111 59 60 38 37 
8 86 87 81 85 59 60 55 58 
8 133 134 130 129 108 109 105 104 
8 0 12 21 23 33 28 29 34 
8 33 28 29 34 8 15 20 22 
8 142 133 129 143 117 108 104 118 
8 36 39 30 18 86 87 81 85 
8 84 85 81 80 57 58 55 54 
8 3 18 30 27 84 85 81 80 
8 5 16 67 76 142 133 129 143 
8 131 141 137 132 106 116 112 107 
8 53 62 31 14 131 141 137 132 
8 46 37 38 47 23 21 29 34 
8 140 141 137 136 115 116 112 111 
8 47 38 42 44 34 29 20 22 
8 57 58 55 54 12 21 29 28 
8 113 112 107 114 47 38 42 44 
8 59 60 55 58 37 38 29 21 
8 61 62 31 13 140 141 137 136 
8 80 81 82 83 54 55 50 56 
8 27 30 19 11 80 81 82 83 
8 108 109 105 104 43 48 65 66 
8 138 137 132 139 113 112 107 114 
8 49 60 55 50 42 38 29 20 
8 35 31 14 9 138 137 132 139 
8 135 136 137 138 110 111 112 113 
8 45 43 25 26 77 66 71 74 
8 77 66 71 74 44 42 20 22 
8 100 101 102 103 36 39 87 86 
8 63 51 25 17 79 70 71 73 
8 79 70 71 73 56 50 20 15 
8 16 52 64 67 133 134 130 129 
8 129 130 131 132 104 105 106 107 
8 67 64 53 14 129 130 131 132 
8 125 126 127 128 100 101 102 103 
8 7 32 89 88 125 126 127 128 
8 41 39 30 19 92 87 81 82 
8 92 87 81 82 49 60 55 50 
8 24 40 69 75 96 95 91 97 
8 96 95 91 97 51 48 65 70 
8 75 69 41 19 97 91 92 82 
8 97 91 92 82 70 65 49 50 
8 2 24 75 78 98 96 97 99 
8 98 96 97 99 63 51 70 79 
8 78 75 19 11 99 97 82 83 
8 99 97 82 83 79 70 50 56 
8 106 116 112 107 49 60 38 42 
8 117 108 104 118 45 43 66 77 
8 118 104 107 114 77 66 42 44 
8 103 102 116 115 86 87 60 59 
8 119 120 121 122 41 69 91 92 
8 122 121 105 106 92 91 65 49 
8 123 120 121 124 40 69 91 95 
8 124 121 105 109 95 91 65 48 
8 119 101 102 122 41 39 87 92 
8 122 102 116 106 92 87 60 49 
8 76 67 14 9 143 129 132 139 
8 143 129 132 139 118 104 107 114 
8 88 89 62 61 128 127 141 140 
8 128 127 141 140 103 102 116 115 
8 10 68 90 93 144 145 146 147 
8 144 145 146 147 119 120 121 122 
8 93 90 64 53 147 146 130 131 
8 147 146 130 131 122 121 105 106 
8 6 68 90 94 148 145 146 149 
8 148 145 146 149 123 120 121 124 
8 94 90 64 52 149 146 130 134 
8 149 146 130 134 124 121 105 109 
8 10 32 89 93 144 126 127 147 
8 144 126 127 147 119 101 102 122 
8 93 89 62 53 147 127 141 131 
8 147 127 141 131 122 102 116 106 

CELL_TYPES 80
12 
12 
12 
12 
12 
12 
12 
12 
12 
12 
12 
12 
12 
12 
12 
12 
12 
12 
12 
12 
12 
12 
12 
12 
12 
12 
12 
12 
12 
12 
12 
12 
12 
12 
12 
12 
12 
12 
12 
12 
12 
12 
12 
12 
12 
12 
12 
12 
12 
12 
12 
12 
12 
12 
12 
12 
12 
12 
12 
12 
12 
12 
12 
12 
12 
12 
12 
12 
12 
12 
12 
12 
12 
12 
12 
12 
12 
12 
12 
12 
POINT_DATA 150
SCALARS GMDS_ID int 1
LOOKUP_TABLE default
0 1 2 3 4 5 6 7 8 9 10 11 12 13 14 15 16 17 18 19 20 21 22 23 24 25 26 27 28 29 30 31 32 33 34 35 36 37 38 39 40 41 42 43 44 45 46 47 48 49 50 51 52 53 54 55 56 57 58 59 60 61 62 63 64 65 66 67 68 69 70 71 72 73 74 75 76 77 78 79 80 81 82 83 84 85 86 87 88 89 90 91 92 93 94 95 96 97 98 99 100 101 102 103 104 105 106 107 108 109 110 111 112 113 114 115 116 117 118 119 120 121 122 123 124 125 126 127 128 129 130 131 132 133 134 135 136 137 138 139 140 141 142 143 144 145 146 147 148 149 
SCALARS geom_link_dim_0 int 1
LOOKUP_TABLE default
0 0 0 0 0 0 0 0 0 0 0 0 0 0 0 0 0 0 0 0 0 0 0 0 0 0 0 0 0 0 0 0 0 0 0 0 0 0 0 0 0 0 0 0 0 0 0 0 0 0 0 0 0 0 0 0 0 0 0 0 0 0 0 0 0 0 0 0 0 0 0 0 0 0 0 0 0 0 0 0 0 0 0 0 0 0 0 0 0 0 0 0 0 0 0 0 0 0 0 0 0 0 0 0 0 0 0 0 0 0 0 0 0 0 0 0 0 0 0 0 0 0 0 0 0 0 0 0 0 0 0 0 0 0 0 0 0 0 0 0 0 0 0 0 0 0 0 0 0 0 
SCALARS geom_link_id_0 int 1
LOOKUP_TABLE default
0 0 0 0 0 0 0 0 0 0 0 0 0 0 0 0 0 0 0 0 0 0 0 0 0 0 0 0 0 0 0 0 0 0 0 0 0 0 0 0 0 0 0 0 0 0 0 0 0 0 0 0 0 0 0 0 0 0 0 0 0 0 0 0 0 0 0 0 0 0 0 0 0 0 0 0 0 0 0 0 0 0 0 0 0 0 0 0 0 0 0 0 0 0 0 0 0 0 0 0 0 0 0 0 0 0 0 0 0 0 0 0 0 0 0 0 0 0 0 0 0 0 0 0 0 0 0 0 0 0 0 0 0 0 0 0 0 0 0 0 0 0 0 0 0 0 0 0 0 0 


CELL_DATA 80
SCALARS GMDS_ID int 1
LOOKUP_TABLE default
0 1 2 3 4 5 6 7 9 10 11 12 13 14 15 16 17 18 19 20 21 22 23 25 26 27 29 30 31 32 33 35 37 38 39 40 41 43 44 45 46 47 48 49 50 51 52 53 54 55 56 57 58 59 61 63 65 67 69 71 73 75 77 79 80 81 82 83 84 85 86 87 88 89 90 91 92 93 94 95 

SCALARS geom_link_dim_0 int 1
LOOKUP_TABLE default
0 0 0 0 0 0 0 0 0 0 0 0 0 0 0 0 0 0 0 0 0 0 0 0 0 0 0 0 0 0 0 0 0 0 0 0 0 0 0 0 0 0 0 0 0 0 0 0 0 0 0 0 0 0 0 0 0 0 0 0 0 0 0 0 0 0 0 0 0 0 0 0 0 0 0 0 0 0 0 0 

SCALARS geom_link_id_0 int 1
LOOKUP_TABLE default
0 0 0 0 0 0 0 0 0 0 0 0 0 0 0 0 0 0 0 0 0 0 0 0 0 0 0 0 0 0 0 0 0 0 0 0 0 0 0 0 0 0 0 0 0 0 0 0 0 0 0 0 0 0 0 0 0 0 0 0 0 0 0 0 0 0 0 0 0 0 0 0 0 0 0 0 0 0 0 0 

