# vtk DataFile Version 3.0
Generated by GMDS VTK Writer

ASCII
DATASET UNSTRUCTURED_GRID
POINTS 216 float
0 0 0
0 10 0
10 10 0
10 0 0
0 0 10
0 10 10
10 10 10
10 0 10
6 0 0
6 10 0
6 10 10
6 0 10
4 0 0
4 10 0
4 10 10
4 0 10
4 0 8
4 10 8
6 10 8
6 0 8
0 0 8
0 10 8
10 10 8
10 0 8
6 1 0
4 1 0
4 1 8
6 1 8
4 1 10
6 1 10
0 1 0
0 1 8
0 1 10
10 1 0
10 1 8
10 1 10
6 6 0
4 6 0
4 6 8
6 6 8
4 6 10
6 6 10
0 6 0
0 6 8
0 6 10
10 6 0
10 6 8
10 6 10
6 8 8
4 8 8
4 8 10
6 8 10
6 8 0
4 8 0
0 8 0
0 8 8
0 8 10
10 8 0
10 8 8
10 8 10
8 0 0
8 0 8
8 1 8
8 1 0
8 1 10
8 6 10
8 6 8
8 8 0
8 8 8
8 10 8
8 10 0
8 6 0
8 0 10
8 8 10
8 10 10
6 4 0
4 4 0
4 4 8
6 4 8
8 4 8
8 4 10
10 4 10
10 4 8
4 4 10
6 4 10
0 4 0
0 4 8
0 4 10
8 4 0
10 4 0
4 6 6
0 6 6
0 8 6
4 8 6
6 0 6
4 0 6
4 1 6
6 1 6
6 8 6
4 10 6
6 10 6
0 0 6
0 1 6
6 6 6
8 0 6
8 1 6
10 1 6
10 0 6
0 10 6
6 4 6
4 4 6
8 8 6
8 10 6
10 8 6
10 10 6
8 6 6
10 6 6
0 4 6
8 4 6
10 4 6
4 6 4
0 6 4
0 8 4
4 8 4
6 0 4
4 0 4
4 1 4
6 1 4
6 8 4
4 10 4
6 10 4
0 0 4
0 1 4
6 6 4
8 0 4
8 1 4
10 1 4
10 0 4
0 10 4
6 4 4
4 4 4
8 8 4
8 10 4
10 8 4
10 10 4
8 6 4
10 6 4
0 4 4
8 4 4
10 4 4
1 0 10
1 0 8
1 1 8
1 1 10
1 0 4
1 1 4
1 1 6
1 0 6
1 0 0
1 1 0
1 6 8
1 6 10
1 8 10
1 8 8
1 10 10
1 10 8
1 6 6
1 8 6
1 4 10
1 4 8
1 6 4
1 8 4
1 6 0
1 8 0
1 10 6
1 4 6
1 10 0
1 10 4
1 4 0
1 4 4
6 0 1
4 0 1
4 1 1
6 1 1
6 8 1
4 8 1
4 10 1
6 10 1
6 6 1
4 6 1
8 0 1
8 1 1
10 1 1
10 0 1
6 4 1
4 4 1
8 8 1
8 10 1
10 8 1
10 10 1
8 6 1
10 6 1
8 4 1
10 4 1
1 0 1
1 1 1
0 0 1
0 1 1
0 6 1
0 8 1
1 8 1
1 6 1
0 10 1
1 10 1
0 4 1
1 4 1

CELLS 123 1107
8 124 127 135 134 94 97 105 104 
8 121 122 92 91 170 171 167 166 
8 127 126 140 139 97 96 110 109 
8 19 16 15 11 27 26 28 29 
8 170 171 167 166 120 123 93 90 
8 133 120 123 128 103 90 93 98 
8 98 93 99 100 48 49 17 18 
8 180 183 191 190 124 127 135 134 
8 139 140 120 133 109 110 90 103 
8 188 184 196 200 133 128 141 145 
8 128 123 129 130 98 93 99 100 
8 48 49 50 51 18 17 14 10 
8 62 64 35 34 79 80 81 82 
8 39 38 40 41 48 49 50 51 
8 94 95 96 97 19 16 26 27 
8 79 80 81 82 66 65 47 46 
8 36 37 53 52 188 189 185 184 
8 197 196 198 199 142 141 143 144 
8 188 189 185 184 133 120 123 128 
8 70 67 57 2 197 196 198 199 
8 187 184 196 197 130 128 141 142 
8 27 26 28 29 78 77 83 84 
8 78 77 83 84 39 38 40 41 
8 134 135 136 137 104 105 106 107 
8 36 52 67 71 188 184 196 200 
8 9 52 67 70 187 184 196 197 
8 11 19 27 29 72 61 62 64 
8 72 61 62 64 7 23 34 35 
8 48 51 10 18 68 73 74 69 
8 68 73 74 69 58 59 6 22 
8 39 41 51 48 66 65 73 68 
8 66 65 73 68 46 47 59 58 
8 183 182 195 194 127 126 140 139 
8 24 25 76 75 183 182 195 194 
8 27 29 64 62 78 84 80 79 
8 78 84 80 79 39 41 65 66 
8 124 125 126 127 94 95 96 97 
8 194 195 189 188 139 140 120 133 
8 169 168 161 160 77 83 40 38 
8 103 90 93 98 39 38 49 48 
8 86 87 44 43 169 168 161 160 
8 104 105 106 107 61 62 34 23 
8 152 153 168 169 26 28 83 77 
8 94 97 105 104 19 27 62 61 
8 31 32 87 86 152 153 168 169 
8 8 24 63 60 180 183 191 190 
8 166 167 163 160 90 93 49 38 
8 109 110 90 103 78 77 38 39 
8 91 92 55 43 166 167 163 160 
8 97 96 110 109 27 26 77 78 
8 163 162 164 165 49 50 14 17 
8 100 98 111 112 18 48 68 69 
8 55 56 5 21 163 162 164 165 
8 112 111 113 114 69 68 58 22 
8 160 161 162 163 38 40 50 49 
8 75 76 37 36 194 195 189 188 
8 43 44 56 55 160 161 162 163 
8 115 111 113 116 66 68 58 46 
8 190 191 192 193 134 135 136 137 
8 60 63 33 3 190 191 192 193 
8 154 155 156 157 125 126 96 95 
8 106 105 118 119 34 62 79 82 
8 131 132 102 101 154 155 156 157 
8 119 118 115 116 82 79 66 46 
8 150 151 152 153 15 16 26 28 
8 97 105 118 109 27 62 79 78 
8 4 20 31 32 150 151 152 153 
8 109 118 115 103 78 79 66 39 
8 130 128 141 142 100 98 111 112 
8 142 141 143 144 112 111 113 114 
8 133 128 141 145 103 98 111 115 
8 145 141 143 146 115 111 113 116 
8 184 185 186 187 128 123 129 130 
8 52 53 13 9 184 185 186 187 
8 180 181 182 183 124 125 126 127 
8 8 12 25 24 180 181 182 183 
8 136 135 148 149 106 105 118 119 
8 149 148 145 146 119 118 115 116 
8 127 135 148 139 97 105 118 109 
8 139 148 145 133 109 118 115 103 
8 101 102 31 20 157 156 152 151 
8 157 156 152 151 95 96 26 16 
8 108 92 55 21 174 167 163 165 
8 174 167 163 165 99 93 49 17 
8 102 117 86 31 156 175 169 152 
8 156 175 169 152 96 110 77 26 
8 91 117 86 43 166 175 169 160 
8 166 175 169 160 90 110 77 38 
8 138 122 92 108 177 171 167 174 
8 177 171 167 174 129 123 93 99 
8 132 147 117 102 155 179 175 156 
8 155 179 175 156 126 140 110 96 
8 121 147 117 91 170 179 175 166 
8 170 179 175 166 120 140 110 90 
8 71 67 57 45 200 196 198 201 
8 200 196 198 201 145 141 143 146 
8 33 63 88 89 192 191 202 203 
8 192 191 202 203 136 135 148 149 
8 89 88 71 45 203 202 200 201 
8 203 202 200 201 149 148 145 146 
8 24 63 88 75 183 191 202 194 
8 183 191 202 194 127 135 148 139 
8 75 88 71 36 194 202 200 188 
8 194 202 200 188 139 148 145 133 
8 158 159 25 12 204 205 182 181 
8 204 205 182 181 154 155 126 125 
8 0 30 159 158 206 207 205 204 
8 206 207 205 204 131 132 155 154 
8 42 54 173 172 208 209 210 211 
8 208 209 210 211 121 122 171 170 
8 172 173 53 37 211 210 185 189 
8 211 210 185 189 170 171 123 120 
8 1 54 173 176 212 209 210 213 
8 212 209 210 213 138 122 171 177 
8 176 173 53 13 213 210 185 186 
8 213 210 185 186 177 171 123 129 
8 30 85 178 159 207 214 215 205 
8 207 214 215 205 132 147 179 155 
8 159 178 76 25 205 215 195 182 
8 42 85 178 172 208 214 215 211 
8 208 214 215 211 121 147 179 170 
8 172 178 76 37 211 215 195 189 
8 211 215 195 189 170 179 140 120 

CELL_TYPES 123
12 
12 
12 
12 
12 
12 
12 
12 
12 
12 
12 
12 
12 
12 
12 
12 
12 
12 
12 
12 
12 
12 
12 
12 
12 
12 
12 
12 
12 
12 
12 
12 
12 
12 
12 
12 
12 
12 
12 
12 
12 
12 
12 
12 
12 
12 
12 
12 
12 
12 
12 
12 
12 
12 
12 
12 
12 
12 
12 
12 
12 
12 
12 
12 
12 
12 
12 
12 
12 
12 
12 
12 
12 
12 
12 
12 
12 
12 
12 
12 
12 
12 
12 
12 
12 
12 
12 
12 
12 
12 
12 
12 
12 
12 
12 
12 
12 
12 
12 
12 
12 
12 
12 
12 
12 
12 
12 
12 
12 
12 
12 
12 
12 
12 
12 
12 
12 
12 
12 
12 
12 
12 
12 
POINT_DATA 216
SCALARS GMDS_ID int 1
LOOKUP_TABLE default
0 1 2 3 4 5 6 7 8 9 10 11 12 13 14 15 16 17 18 19 20 21 22 23 24 25 26 27 28 29 30 31 32 33 34 35 36 37 38 39 40 41 42 43 44 45 46 47 48 49 50 51 52 53 54 55 56 57 58 59 60 61 62 63 64 65 66 67 68 69 70 71 72 73 74 75 76 77 78 79 80 81 82 83 84 85 86 87 88 89 90 91 92 93 94 95 96 97 98 99 100 101 102 103 104 105 106 107 108 109 110 111 112 113 114 115 116 117 118 119 120 121 122 123 124 125 126 127 128 129 130 131 132 133 134 135 136 137 138 139 140 141 142 143 144 145 146 147 148 149 150 151 152 153 154 155 156 157 158 159 160 161 162 163 164 165 166 167 168 169 170 171 172 173 174 175 176 177 178 179 180 181 182 183 184 185 186 187 188 189 190 191 192 193 194 195 196 197 198 199 200 201 202 203 204 205 206 207 208 209 210 211 212 213 214 215 
SCALARS geom_link_dim_0 int 1
LOOKUP_TABLE default
0 0 0 0 0 0 0 0 0 0 0 0 0 0 0 0 0 0 0 0 0 0 0 0 0 0 0 0 0 0 0 0 0 0 0 0 0 0 0 0 0 0 0 0 0 0 0 0 0 0 0 0 0 0 0 0 0 0 0 0 0 0 0 0 0 0 0 0 0 0 0 0 0 0 0 0 0 0 0 0 0 0 0 0 0 0 0 0 0 0 0 0 0 0 0 0 0 0 0 0 0 0 0 0 0 0 0 0 0 0 0 0 0 0 0 0 0 0 0 0 0 0 0 0 0 0 0 0 0 0 0 0 0 0 0 0 0 0 0 0 0 0 0 0 0 0 0 0 0 0 0 0 0 0 0 0 0 0 0 0 0 0 0 0 0 0 0 0 0 0 0 0 0 0 0 0 0 0 0 0 0 0 0 0 0 0 0 0 0 0 0 0 0 0 0 0 0 0 0 0 0 0 0 0 0 0 0 0 0 0 0 0 0 0 0 0 
SCALARS geom_link_id_0 int 1
LOOKUP_TABLE default
0 0 0 0 0 0 0 0 0 0 0 0 0 0 0 0 0 0 0 0 0 0 0 0 0 0 0 0 0 0 0 0 0 0 0 0 0 0 0 0 0 0 0 0 0 0 0 0 0 0 0 0 0 0 0 0 0 0 0 0 0 0 0 0 0 0 0 0 0 0 0 0 0 0 0 0 0 0 0 0 0 0 0 0 0 0 0 0 0 0 0 0 0 0 0 0 0 0 0 0 0 0 0 0 0 0 0 0 0 0 0 0 0 0 0 0 0 0 0 0 0 0 0 0 0 0 0 0 0 0 0 0 0 0 0 0 0 0 0 0 0 0 0 0 0 0 0 0 0 0 0 0 0 0 0 0 0 0 0 0 0 0 0 0 0 0 0 0 0 0 0 0 0 0 0 0 0 0 0 0 0 0 0 0 0 0 0 0 0 0 0 0 0 0 0 0 0 0 0 0 0 0 0 0 0 0 0 0 0 0 0 0 0 0 0 0 


CELL_DATA 123
SCALARS GMDS_ID int 1
LOOKUP_TABLE default
0 1 2 3 4 5 6 8 10 12 14 15 16 17 18 20 21 22 23 24 25 26 27 28 31 33 34 35 36 37 38 39 40 41 42 43 45 47 48 49 50 51 52 53 54 55 56 57 58 59 60 61 62 63 64 65 66 67 69 71 72 73 74 75 76 77 78 79 80 82 84 86 87 88 89 90 92 94 96 98 99 100 101 102 103 104 105 106 109 110 113 114 117 118 119 120 121 122 123 124 125 126 127 128 129 130 131 132 133 134 135 136 137 138 139 140 141 142 143 145 146 147 148 

SCALARS geom_link_dim_0 int 1
LOOKUP_TABLE default
0 0 0 0 0 0 0 0 0 0 0 0 0 0 0 0 0 0 0 0 0 0 0 0 0 0 0 0 0 0 0 0 0 0 0 0 0 0 0 0 0 0 0 0 0 0 0 0 0 0 0 0 0 0 0 0 0 0 0 0 0 0 0 0 0 0 0 0 0 0 0 0 0 0 0 0 0 0 0 0 0 0 0 0 0 0 0 0 0 0 0 0 0 0 0 0 0 0 0 0 0 0 0 0 0 0 0 0 0 0 0 0 0 0 0 0 0 0 0 0 0 0 0 

SCALARS geom_link_id_0 int 1
LOOKUP_TABLE default
0 0 0 0 0 0 0 0 0 0 0 0 0 0 0 0 0 0 0 0 0 0 0 0 0 0 0 0 0 0 0 0 0 0 0 0 0 0 0 0 0 0 0 0 0 0 0 0 0 0 0 0 0 0 0 0 0 0 0 0 0 0 0 0 0 0 0 0 0 0 0 0 0 0 0 0 0 0 0 0 0 0 0 0 0 0 0 0 0 0 0 0 0 0 0 0 0 0 0 0 0 0 0 0 0 0 0 0 0 0 0 0 0 0 0 0 0 0 0 0 0 0 0 

