# vtk DataFile Version 3.0
Generated by GMDS VTK Writer

ASCII
DATASET UNSTRUCTURED_GRID
POINTS 90 float
0 0 0
0 10 0
10 10 0
10 0 0
0 0 10
0 10 10
10 10 10
10 0 10
6 0 0
6 10 0
6 10 10
6 0 10
4 0 0
4 10 0
4 10 10
4 0 10
4 0 8
4 10 8
6 10 8
6 0 8
0 0 8
0 10 8
10 10 8
10 0 8
6 1 0
4 1 0
4 1 8
6 1 8
4 1 10
6 1 10
0 1 0
0 1 8
0 1 10
10 1 0
10 1 8
10 1 10
6 6 0
4 6 0
4 6 8
6 6 8
4 6 10
6 6 10
0 6 0
0 6 8
0 6 10
10 6 0
10 6 8
10 6 10
6 8 8
4 8 8
4 8 10
6 8 10
6 8 0
4 8 0
0 8 0
0 8 8
0 8 10
10 8 0
10 8 8
10 8 10
8 0 0
8 0 8
8 1 8
8 1 0
8 1 10
8 6 10
8 6 8
8 8 0
8 8 8
8 10 8
8 10 0
8 6 0
8 0 10
8 8 10
8 10 10
6 4 0
4 4 0
4 4 8
6 4 8
8 4 8
8 4 10
10 4 10
10 4 8
4 4 10
6 4 10
0 4 0
0 4 8
0 4 10
8 4 0
10 4 0

CELLS 40 360
8 54 53 49 55 1 13 17 21 
8 8 12 16 19 24 25 26 27 
8 19 16 15 11 27 26 28 29 
8 67 68 69 70 57 58 22 2 
8 52 48 18 9 67 68 69 70 
8 42 37 38 43 54 53 49 55 
8 0 12 16 20 30 25 26 31 
8 52 53 49 48 9 13 17 18 
8 20 16 15 4 31 26 28 32 
8 36 37 38 39 52 53 49 48 
8 85 76 77 86 42 37 38 43 
8 48 49 50 51 18 17 14 10 
8 62 64 35 34 79 80 81 82 
8 39 38 40 41 48 49 50 51 
8 79 80 81 82 66 65 47 46 
8 60 61 62 63 3 23 34 33 
8 30 25 26 31 85 76 77 86 
8 8 19 27 24 60 61 62 63 
8 43 38 40 44 55 49 50 56 
8 55 49 50 56 21 17 14 5 
8 27 26 28 29 78 77 83 84 
8 78 77 83 84 39 38 40 41 
8 24 25 26 27 75 76 77 78 
8 75 76 77 78 36 37 38 39 
8 36 39 48 52 71 66 68 67 
8 71 66 68 67 45 46 58 57 
8 11 19 27 29 72 61 62 64 
8 72 61 62 64 7 23 34 35 
8 48 51 10 18 68 73 74 69 
8 68 73 74 69 58 59 6 22 
8 39 41 51 48 66 65 73 68 
8 66 65 73 68 46 47 59 58 
8 31 26 28 32 86 77 83 87 
8 86 77 83 87 43 38 40 44 
8 27 29 64 62 78 84 80 79 
8 78 84 80 79 39 41 65 66 
8 63 62 34 33 88 79 82 89 
8 88 79 82 89 71 66 46 45 
8 24 27 62 63 75 78 79 88 
8 75 78 79 88 36 39 66 71 

CELL_TYPES 40
12 
12 
12 
12 
12 
12 
12 
12 
12 
12 
12 
12 
12 
12 
12 
12 
12 
12 
12 
12 
12 
12 
12 
12 
12 
12 
12 
12 
12 
12 
12 
12 
12 
12 
12 
12 
12 
12 
12 
12 
POINT_DATA 90
SCALARS GMDS_ID int 1
LOOKUP_TABLE default
0 1 2 3 4 5 6 7 8 9 10 11 12 13 14 15 16 17 18 19 20 21 22 23 24 25 26 27 28 29 30 31 32 33 34 35 36 37 38 39 40 41 42 43 44 45 46 47 48 49 50 51 52 53 54 55 56 57 58 59 60 61 62 63 64 65 66 67 68 69 70 71 72 73 74 75 76 77 78 79 80 81 82 83 84 85 86 87 88 89 
SCALARS geom_link_dim_0 int 1
LOOKUP_TABLE default
0 0 0 0 0 0 0 0 0 0 0 0 0 0 0 0 0 0 0 0 0 0 0 0 0 0 0 0 0 0 0 0 0 0 0 0 0 0 0 0 0 0 0 0 0 0 0 0 0 0 0 0 0 0 0 0 0 0 0 0 0 0 0 0 0 0 0 0 0 0 0 0 0 0 0 0 0 0 0 0 0 0 0 0 0 0 0 0 0 0 
SCALARS geom_link_id_0 int 1
LOOKUP_TABLE default
0 0 0 0 0 0 0 0 0 0 0 0 0 0 0 0 0 0 0 0 0 0 0 0 0 0 0 0 0 0 0 0 0 0 0 0 0 0 0 0 0 0 0 0 0 0 0 0 0 0 0 0 0 0 0 0 0 0 0 0 0 0 0 0 0 0 0 0 0 0 0 0 0 0 0 0 0 0 0 0 0 0 0 0 0 0 0 0 0 0 


CELL_DATA 40
SCALARS GMDS_ID int 1
LOOKUP_TABLE default
0 2 3 5 7 9 10 11 12 13 14 15 16 17 20 21 22 23 24 25 26 27 28 29 30 31 34 35 36 37 38 39 40 41 42 43 44 45 46 47 

SCALARS geom_link_dim_0 int 1
LOOKUP_TABLE default
0 0 0 0 0 0 0 0 0 0 0 0 0 0 0 0 0 0 0 0 0 0 0 0 0 0 0 0 0 0 0 0 0 0 0 0 0 0 0 0 

SCALARS geom_link_id_0 int 1
LOOKUP_TABLE default
0 0 0 0 0 0 0 0 0 0 0 0 0 0 0 0 0 0 0 0 0 0 0 0 0 0 0 0 0 0 0 0 0 0 0 0 0 0 0 0 

