# vtk DataFile Version 3.0
Generated by GMDS VTK Writer

ASCII
DATASET UNSTRUCTURED_GRID
POINTS 64 float
0 0 0
0 10 0
10 10 0
10 0 0
0 0 10
0 10 10
10 10 10
10 0 10
0 4 0
0 4 10
10 4 10
10 4 0
1 0 0
1 0 10
1 4 10
1 4 0
1 10 10
1 10 0
10 0 1
10 4 1
1 4 1
1 0 1
0 4 1
0 0 1
10 10 1
1 10 1
0 10 1
10 1 0
1 1 0
1 1 1
10 1 1
1 1 10
10 1 10
0 1 0
0 1 1
0 1 10
10 0 4
1 0 4
1 1 4
10 1 4
10 10 4
10 4 4
1 4 4
1 10 4
0 4 4
0 10 4
0 0 4
0 1 4
4 10 4
4 4 4
4 4 1
4 10 1
4 10 10
4 4 10
4 1 0
4 1 1
4 4 0
4 0 0
4 0 1
4 0 4
4 1 4
4 0 10
4 1 10
4 10 0

CELLS 27 243
8 6 10 41 40 52 53 49 48 
8 54 55 50 56 28 29 20 15 
8 27 30 19 11 54 55 50 56 
8 17 15 8 1 25 20 22 26 
8 52 53 49 48 16 14 42 43 
8 0 12 21 23 33 28 29 34 
8 33 28 29 34 8 15 20 22 
8 48 49 50 51 43 42 20 25 
8 40 41 19 24 48 49 50 51 
8 16 14 9 5 43 42 44 45 
8 43 42 44 45 25 20 22 26 
8 4 13 31 35 46 37 38 47 
8 46 37 38 47 23 21 29 34 
8 35 31 14 9 47 38 42 44 
8 47 38 42 44 34 29 20 22 
8 3 18 30 27 57 58 55 54 
8 57 58 55 54 12 21 29 28 
8 36 39 30 18 59 60 55 58 
8 59 60 55 58 37 38 29 21 
8 7 32 39 36 61 62 60 59 
8 61 62 60 59 13 31 38 37 
8 2 11 19 24 63 56 50 51 
8 63 56 50 51 17 15 20 25 
8 10 32 39 41 53 62 60 49 
8 53 62 60 49 14 31 38 42 
8 41 39 30 19 49 60 55 50 
8 49 60 55 50 42 38 29 20 

CELL_TYPES 27
12 
12 
12 
12 
12 
12 
12 
12 
12 
12 
12 
12 
12 
12 
12 
12 
12 
12 
12 
12 
12 
12 
12 
12 
12 
12 
12 
POINT_DATA 64
SCALARS GMDS_ID int 1
LOOKUP_TABLE default
0 1 2 3 4 5 6 7 8 9 10 11 12 13 14 15 16 17 18 19 20 21 22 23 24 25 26 27 28 29 30 31 32 33 34 35 36 37 38 39 40 41 42 43 44 45 46 47 48 49 50 51 52 53 54 55 56 57 58 59 60 61 62 63 
SCALARS geom_link_dim_0 int 1
LOOKUP_TABLE default
0 0 0 0 0 0 0 0 0 0 0 0 0 0 0 0 0 0 0 0 0 0 0 0 0 0 0 0 0 0 0 0 0 0 0 0 0 0 0 0 0 0 0 0 0 0 0 0 0 0 0 0 0 0 0 0 0 0 0 0 0 0 0 0 
SCALARS geom_link_id_0 int 1
LOOKUP_TABLE default
0 0 0 0 0 0 0 0 0 0 0 0 0 0 0 0 0 0 0 0 0 0 0 0 0 0 0 0 0 0 0 0 0 0 0 0 0 0 0 0 0 0 0 0 0 0 0 0 0 0 0 0 0 0 0 0 0 0 0 0 0 0 0 0 


CELL_DATA 27
SCALARS GMDS_ID int 1
LOOKUP_TABLE default
0 3 9 10 11 12 13 14 15 16 17 20 21 22 23 24 25 26 27 28 29 30 31 32 33 34 35 

SCALARS geom_link_dim_0 int 1
LOOKUP_TABLE default
0 0 0 0 0 0 0 0 0 0 0 0 0 0 0 0 0 0 0 0 0 0 0 0 0 0 0 

SCALARS geom_link_id_0 int 1
LOOKUP_TABLE default
0 0 0 0 0 0 0 0 0 0 0 0 0 0 0 0 0 0 0 0 0 0 0 0 0 0 0 

