# vtk DataFile Version 3.0
Generated by GMDS VTK Writer

ASCII
DATASET UNSTRUCTURED_GRID
POINTS 180 float
0 0 0
0 10 0
10 10 0
10 0 0
0 0 10
0 10 10
10 10 10
10 0 10
0 1 0
0 1 10
10 1 10
10 1 0
0 0 1
10 0 1
10 1 1
0 1 1
10 10 1
0 10 1
1 0 0
1 1 0
1 1 1
1 0 1
1 1 10
1 0 10
1 10 0
1 10 1
1 10 10
0 0 4
0 1 4
1 1 4
1 0 4
10 1 4
10 0 4
0 10 4
1 10 4
10 10 4
10 4 4
1 4 4
1 4 1
10 4 1
1 4 0
10 4 0
10 4 10
1 4 10
0 4 0
0 4 1
0 4 4
0 4 10
4 1 4
4 0 4
4 0 1
4 1 1
4 1 10
4 0 10
4 4 0
4 4 1
4 10 1
4 10 0
4 1 0
4 0 0
4 4 4
4 10 4
4 4 10
4 10 10
6 1 10
6 0 10
6 0 4
6 1 4
6 0 1
6 1 1
6 4 0
6 4 1
6 10 1
6 10 0
6 1 0
6 0 0
6 4 4
6 10 4
6 4 10
6 10 10
1 6 1
1 6 0
4 6 0
4 6 1
6 6 0
6 6 1
10 6 1
10 6 0
0 6 0
0 6 1
0 6 4
1 6 4
0 6 10
1 6 10
4 6 4
4 6 10
6 6 4
10 6 4
6 6 10
10 6 10
0 0 6
0 1 6
1 1 6
1 0 6
4 0 6
4 1 6
6 1 6
6 0 6
10 0 6
10 1 6
1 4 6
0 4 6
4 4 6
6 4 6
10 4 6
0 6 6
1 6 6
0 10 6
1 10 6
4 6 6
4 10 6
6 6 6
6 10 6
10 6 6
10 10 6
4 1 8
4 0 8
6 0 8
6 1 8
10 0 8
10 1 8
1 1 8
1 0 8
0 0 8
0 1 8
1 4 8
0 4 8
4 4 8
6 4 8
10 4 8
0 6 8
1 6 8
0 10 8
1 10 8
4 6 8
4 10 8
6 6 8
6 10 8
10 6 8
10 10 8
6 8 1
6 8 0
10 8 0
10 8 1
4 8 1
4 8 0
0 8 0
0 8 1
1 8 1
1 8 0
0 8 4
1 8 4
4 8 4
6 8 4
10 8 4
1 8 6
0 8 6
4 8 6
6 8 6
10 8 6
1 8 8
0 8 8
1 8 10
0 8 10
4 8 8
4 8 10
6 8 8
6 8 10
10 8 8
10 8 10

CELLS 100 900
8 59 58 51 50 75 74 69 68 
8 158 161 162 154 80 91 94 83 
8 0 8 15 12 18 19 20 21 
8 74 69 71 70 11 14 39 41 
8 27 28 29 30 12 15 20 21 
8 128 138 139 130 64 78 42 10 
8 58 51 55 54 74 69 71 70 
8 29 37 60 48 102 110 112 105 
8 106 113 114 109 128 138 139 130 
8 25 34 61 56 158 161 162 154 
8 67 66 68 69 31 32 13 14 
8 48 49 50 51 67 66 68 69 
8 29 30 21 20 48 49 50 51 
8 46 37 38 45 90 91 80 89 
8 44 45 38 40 88 89 80 81 
8 125 137 138 128 52 62 78 64 
8 105 112 113 106 125 137 138 128 
8 8 15 20 19 44 45 38 40 
8 28 29 37 46 101 102 110 111 
8 28 29 20 15 46 37 38 45 
8 150 163 164 153 85 96 97 86 
8 131 135 137 125 22 43 62 52 
8 48 49 66 67 105 104 107 106 
8 19 20 38 40 58 51 55 54 
8 18 19 20 21 59 58 51 50 
8 54 55 71 70 82 83 85 84 
8 72 77 35 16 150 163 164 153 
8 20 29 37 38 51 48 60 55 
8 70 71 39 41 84 85 86 87 
8 102 110 112 105 131 135 137 125 
8 67 66 32 31 106 107 108 109 
8 38 40 54 55 80 81 82 83 
8 75 74 69 68 3 11 14 13 
8 154 162 163 150 83 94 96 85 
8 29 30 49 48 102 103 104 105 
8 51 48 60 55 69 67 76 71 
8 69 67 76 71 14 31 36 39 
8 134 131 135 136 9 22 43 47 
8 101 102 110 111 134 131 135 136 
8 56 61 77 72 154 162 163 150 
8 27 28 29 30 100 101 102 103 
8 133 134 131 132 4 9 22 23 
8 100 101 102 103 133 134 131 132 
8 37 38 55 60 91 80 83 94 
8 131 132 126 125 22 23 53 52 
8 102 103 104 105 131 132 126 125 
8 55 60 76 71 83 94 96 85 
8 71 76 36 39 85 96 97 86 
8 128 127 129 130 64 65 7 10 
8 106 107 108 109 128 127 129 130 
8 125 126 127 128 52 53 65 64 
8 105 104 107 106 125 126 127 128 
8 48 60 76 67 105 112 113 106 
8 159 158 154 155 81 80 83 82 
8 67 76 36 31 106 113 114 109 
8 24 25 56 57 159 158 154 155 
8 37 46 90 91 110 111 115 116 
8 160 161 158 157 90 91 80 89 
8 33 34 25 17 160 161 158 157 
8 37 60 94 91 110 112 119 116 
8 156 157 158 159 88 89 80 81 
8 1 17 25 24 156 157 158 159 
8 60 76 96 94 112 113 121 119 
8 154 155 151 150 83 82 84 85 
8 56 57 73 72 154 155 151 150 
8 36 76 96 97 114 113 121 123 
8 150 151 152 153 85 84 87 86 
8 72 73 2 16 150 151 152 153 
8 110 111 115 116 135 136 140 141 
8 135 136 140 141 43 47 92 93 
8 110 112 119 116 135 137 144 141 
8 135 137 144 141 43 62 95 93 
8 112 113 121 119 137 138 146 144 
8 137 138 146 144 62 78 98 95 
8 114 113 121 123 139 138 146 148 
8 139 138 146 148 42 78 98 99 
8 33 34 118 117 160 161 165 166 
8 160 161 165 166 90 91 116 115 
8 34 61 120 118 161 162 167 165 
8 161 162 167 165 91 94 119 116 
8 61 77 122 120 162 163 168 167 
8 162 163 168 167 94 96 121 119 
8 35 77 122 124 164 163 168 169 
8 164 163 168 169 97 96 121 123 
8 117 118 143 142 166 165 170 171 
8 166 165 170 171 115 116 141 140 
8 142 143 26 5 171 170 172 173 
8 171 170 172 173 140 141 93 92 
8 118 120 145 143 165 167 174 170 
8 165 167 174 170 116 119 144 141 
8 143 145 63 26 170 174 175 172 
8 170 174 175 172 141 144 95 93 
8 120 122 147 145 167 168 176 174 
8 167 168 176 174 119 121 146 144 
8 145 147 79 63 174 176 177 175 
8 174 176 177 175 144 146 98 95 
8 122 124 149 147 168 169 178 176 
8 168 169 178 176 121 123 148 146 
8 147 149 6 79 176 178 179 177 
8 176 178 179 177 146 148 99 98 

CELL_TYPES 100
12 
12 
12 
12 
12 
12 
12 
12 
12 
12 
12 
12 
12 
12 
12 
12 
12 
12 
12 
12 
12 
12 
12 
12 
12 
12 
12 
12 
12 
12 
12 
12 
12 
12 
12 
12 
12 
12 
12 
12 
12 
12 
12 
12 
12 
12 
12 
12 
12 
12 
12 
12 
12 
12 
12 
12 
12 
12 
12 
12 
12 
12 
12 
12 
12 
12 
12 
12 
12 
12 
12 
12 
12 
12 
12 
12 
12 
12 
12 
12 
12 
12 
12 
12 
12 
12 
12 
12 
12 
12 
12 
12 
12 
12 
12 
12 
12 
12 
12 
12 
POINT_DATA 180
SCALARS GMDS_ID int 1
LOOKUP_TABLE default
0 1 2 3 4 5 6 7 8 9 10 11 12 13 14 15 16 17 18 19 20 21 22 23 24 25 26 27 28 29 30 31 32 33 34 35 36 37 38 39 40 41 42 43 44 45 46 47 48 49 50 51 52 53 54 55 56 57 58 59 60 61 62 63 64 65 66 67 68 69 70 71 72 73 74 75 76 77 78 79 80 81 82 83 84 85 86 87 88 89 90 91 92 93 94 95 96 97 98 99 100 101 102 103 104 105 106 107 108 109 110 111 112 113 114 115 116 117 118 119 120 121 122 123 124 125 126 127 128 129 130 131 132 133 134 135 136 137 138 139 140 141 142 143 144 145 146 147 148 149 150 151 152 153 154 155 156 157 158 159 160 161 162 163 164 165 166 167 168 169 170 171 172 173 174 175 176 177 178 179 
SCALARS geom_link_dim_0 int 1
LOOKUP_TABLE default
0 0 0 0 0 0 0 0 0 0 0 0 0 0 0 0 0 0 0 0 0 0 0 0 0 0 0 0 0 0 0 0 0 0 0 0 0 0 0 0 0 0 0 0 0 0 0 0 0 0 0 0 0 0 0 0 0 0 0 0 0 0 0 0 0 0 0 0 0 0 0 0 0 0 0 0 0 0 0 0 0 0 0 0 0 0 0 0 0 0 0 0 0 0 0 0 0 0 0 0 0 0 0 0 0 0 0 0 0 0 0 0 0 0 0 0 0 0 0 0 0 0 0 0 0 0 0 0 0 0 0 0 0 0 0 0 0 0 0 0 0 0 0 0 0 0 0 0 0 0 0 0 0 0 0 0 0 0 0 0 0 0 0 0 0 0 0 0 0 0 0 0 0 0 0 0 0 0 0 0 
SCALARS geom_link_id_0 int 1
LOOKUP_TABLE default
0 0 0 0 0 0 0 0 0 0 0 0 0 0 0 0 0 0 0 0 0 0 0 0 0 0 0 0 0 0 0 0 0 0 0 0 0 0 0 0 0 0 0 0 0 0 0 0 0 0 0 0 0 0 0 0 0 0 0 0 0 0 0 0 0 0 0 0 0 0 0 0 0 0 0 0 0 0 0 0 0 0 0 0 0 0 0 0 0 0 0 0 0 0 0 0 0 0 0 0 0 0 0 0 0 0 0 0 0 0 0 0 0 0 0 0 0 0 0 0 0 0 0 0 0 0 0 0 0 0 0 0 0 0 0 0 0 0 0 0 0 0 0 0 0 0 0 0 0 0 0 0 0 0 0 0 0 0 0 0 0 0 0 0 0 0 0 0 0 0 0 0 0 0 0 0 0 0 0 0 


CELL_DATA 100
SCALARS GMDS_ID int 1
LOOKUP_TABLE default
0 1 2 3 4 5 6 7 8 9 10 11 12 14 15 16 17 18 19 20 21 22 23 24 26 27 28 30 31 32 34 35 36 37 38 39 40 41 42 43 44 46 47 48 50 51 52 54 56 57 58 59 60 61 62 63 64 65 67 68 69 71 72 73 75 76 77 79 80 81 84 85 88 89 92 93 96 97 98 99 100 101 102 103 104 105 106 107 108 109 110 111 112 113 114 115 116 117 118 119 

SCALARS geom_link_dim_0 int 1
LOOKUP_TABLE default
0 0 0 0 0 0 0 0 0 0 0 0 0 0 0 0 0 0 0 0 0 0 0 0 0 0 0 0 0 0 0 0 0 0 0 0 0 0 0 0 0 0 0 0 0 0 0 0 0 0 0 0 0 0 0 0 0 0 0 0 0 0 0 0 0 0 0 0 0 0 0 0 0 0 0 0 0 0 0 0 0 0 0 0 0 0 0 0 0 0 0 0 0 0 0 0 0 0 0 0 

SCALARS geom_link_id_0 int 1
LOOKUP_TABLE default
0 0 0 0 0 0 0 0 0 0 0 0 0 0 0 0 0 0 0 0 0 0 0 0 0 0 0 0 0 0 0 0 0 0 0 0 0 0 0 0 0 0 0 0 0 0 0 0 0 0 0 0 0 0 0 0 0 0 0 0 0 0 0 0 0 0 0 0 0 0 0 0 0 0 0 0 0 0 0 0 0 0 0 0 0 0 0 0 0 0 0 0 0 0 0 0 0 0 0 0 

