# vtk DataFile Version 3.0
Generated by GMDS VTK Writer

ASCII
DATASET UNSTRUCTURED_GRID
POINTS 80 float
0 0 0
0 10 0
10 10 0
10 0 0
0 0 10
0 10 10
10 10 10
10 0 10
6 0 0
6 10 0
6 10 10
6 0 10
0 0 8
0 10 8
6 10 8
6 0 8
10 10 8
10 0 8
0 0 6
0 10 6
6 10 6
6 0 6
10 10 6
10 0 6
0 6 0
6 6 0
6 6 6
0 6 6
0 6 8
6 6 8
6 6 10
0 6 10
10 6 8
10 6 10
10 6 0
10 6 6
8 6 0
8 6 6
8 10 6
8 10 0
8 0 0
8 0 6
8 0 10
8 0 8
8 6 8
8 6 10
8 10 8
8 10 10
0 4 0
6 4 0
6 4 6
0 4 6
6 4 10
6 4 8
8 4 8
8 4 10
8 4 0
8 4 6
10 4 6
10 4 0
0 4 8
0 4 10
10 4 8
10 4 10
8 10 4
8 6 4
10 6 4
10 10 4
6 10 4
6 6 4
0 6 4
0 10 4
0 4 4
6 4 4
0 0 4
6 0 4
10 0 4
8 0 4
8 4 4
10 4 4

CELLS 36 324
8 70 69 68 71 27 26 20 19 
8 9 25 36 39 68 69 65 64 
8 72 73 69 70 51 50 26 27 
8 0 8 49 48 74 75 73 72 
8 48 49 25 24 72 73 69 70 
8 24 25 9 1 70 69 68 71 
8 28 29 30 31 13 14 10 5 
8 52 53 54 55 30 29 44 45 
8 11 15 43 42 52 53 54 55 
8 68 69 65 64 20 26 37 38 
8 27 26 29 28 19 20 14 13 
8 30 29 14 10 45 44 46 47 
8 45 44 46 47 33 32 16 6 
8 64 65 66 67 38 37 35 22 
8 39 36 34 2 64 65 66 67 
8 29 26 20 14 44 37 38 46 
8 44 37 38 46 32 35 22 16 
8 12 15 11 4 60 53 52 61 
8 60 53 52 61 28 29 30 31 
8 18 21 15 12 51 50 53 60 
8 51 50 53 60 27 26 29 28 
8 42 43 17 7 55 54 62 63 
8 55 54 62 63 45 44 32 33 
8 15 21 41 43 53 50 57 54 
8 53 50 57 54 29 26 37 44 
8 43 41 23 17 54 57 58 62 
8 54 57 58 62 44 37 35 32 
8 74 75 73 72 18 21 50 51 
8 3 40 56 59 76 77 78 79 
8 76 77 78 79 23 41 57 58 
8 59 56 36 34 79 78 65 66 
8 79 78 65 66 58 57 37 35 
8 8 40 56 49 75 77 78 73 
8 75 77 78 73 21 41 57 50 
8 49 56 36 25 73 78 65 69 
8 73 78 65 69 50 57 37 26 

CELL_TYPES 36
12 
12 
12 
12 
12 
12 
12 
12 
12 
12 
12 
12 
12 
12 
12 
12 
12 
12 
12 
12 
12 
12 
12 
12 
12 
12 
12 
12 
12 
12 
12 
12 
12 
12 
12 
12 
POINT_DATA 80
SCALARS GMDS_ID int 1
LOOKUP_TABLE default
0 1 2 3 4 5 6 7 8 9 10 11 12 13 14 15 16 17 18 19 20 21 22 23 24 25 26 27 28 29 30 31 32 33 34 35 36 37 38 39 40 41 42 43 44 45 46 47 48 49 50 51 52 53 54 55 56 57 58 59 60 61 62 63 64 65 66 67 68 69 70 71 72 73 74 75 76 77 78 79 
SCALARS geom_link_dim int 1
LOOKUP_TABLE default
1 1 1 1 1 1 1 1 2 2 2 2 2 2 3 3 2 2 2 2 3 3 2 2 2 3 0 3 3 0 3 2 3 2 2 3 3 0 3 2 2 3 2 3 0 3 3 2 2 3 0 3 3 0 0 3 3 0 3 2 3 2 3 2 3 0 3 2 3 0 3 2 3 0 2 3 2 3 0 3 
SCALARS geom_link_id int 1
LOOKUP_TABLE default
10 12 16 13 9 11 15 14 20 30 25 28 21 32 17 12 27 33 21 32 17 12 27 33 19 11 0 10 10 0 18 29 13 26 31 13 11 0 17 30 20 12 28 12 0 18 17 25 19 11 0 10 18 0 0 18 11 0 13 31 10 29 13 26 17 -1 13 27 17 -1 10 32 10 -1 21 12 33 12 -1 13 


CELL_DATA 36
SCALARS GMDS_ID int 1
LOOKUP_TABLE default
1 2 3 4 5 8 9 10 11 12 13 18 19 20 21 22 23 26 27 28 29 30 31 32 33 34 35 36 37 38 39 40 41 42 43 44 

SCALARS is_in int 1
LOOKUP_TABLE default
1 1 1 0 1 1 1 1 1 1 1 1 1 1 1 0 1 1 1 1 1 1 1 1 1 1 1 1 1 1 1 1 1 1 1 1 

SCALARS geom_link_dim int 1
LOOKUP_TABLE default
0 0 0 0 0 0 0 0 0 0 0 0 0 0 0 0 0 0 0 0 0 0 0 0 0 0 0 0 0 0 0 0 0 0 0 0 

SCALARS geom_link_id int 1
LOOKUP_TABLE default
-1 -1 -1 -1 -1 -1 0 0 0 -1 0 0 0 -1 -1 0 0 0 0 0 0 0 0 0 0 0 0 -1 -1 -1 -1 -1 -1 -1 -1 -1 

