# vtk DataFile Version 3.0
Generated by GMDS VTK Writer

ASCII
DATASET UNSTRUCTURED_GRID
POINTS 24 float
0 0 0
0 10 0
10 10 0
10 0 0
0 0 10
0 10 10
10 10 10
10 0 10
0 1 0
0 1 10
10 1 10
10 1 0
0 6 0
0 6 10
10 6 10
10 6 0
6 6 0
6 6 10
6 10 10
6 10 0
6 1 0
6 1 10
6 0 0
6 0 10

CELLS 6 54
8 12 13 5 1 16 17 18 19 
8 16 17 18 19 15 14 6 2 
8 8 9 13 12 20 21 17 16 
8 20 21 17 16 11 10 14 15 
8 0 4 9 8 22 23 21 20 
8 22 23 21 20 3 7 10 11 

CELL_TYPES 6
12 
12 
12 
12 
12 
12 
POINT_DATA 24
SCALARS GMDS_ID int 1
LOOKUP_TABLE default
0 1 2 3 4 5 6 7 8 9 10 11 12 13 14 15 16 17 18 19 20 21 22 23 
SCALARS geom_link_dim int 1
LOOKUP_TABLE default
1 1 1 1 1 1 1 1 2 2 2 2 2 2 2 2 3 3 2 2 3 3 2 2 
SCALARS geom_link_id int 1
LOOKUP_TABLE default
10 12 16 13 9 11 15 14 19 29 26 31 19 29 26 31 11 18 25 30 11 18 20 28 


CELL_DATA 6
SCALARS GMDS_ID int 1
LOOKUP_TABLE default
2 4 5 6 7 8 

SCALARS is_in int 1
LOOKUP_TABLE default
1 1 1 1 1 1 

SCALARS geom_link_dim int 1
LOOKUP_TABLE default
0 0 0 0 0 0 

SCALARS geom_link_id int 1
LOOKUP_TABLE default
-1 -1 -1 -1 -1 -1 

