# vtk DataFile Version 3.0
Generated by GMDS VTK Writer

ASCII
DATASET UNSTRUCTURED_GRID
POINTS 48 float
0 0 0
0 10 0
10 10 0
10 0 0
0 0 10
0 10 10
10 10 10
10 0 10
0 1 0
0 1 10
10 1 10
10 1 0
0 0 1
10 0 1
10 1 1
0 1 1
10 10 1
0 10 1
1 0 0
1 1 0
1 1 1
1 0 1
1 1 10
1 0 10
1 10 0
1 10 1
1 10 10
0 0 4
0 1 4
1 1 4
1 0 4
10 1 4
10 0 4
0 10 4
1 10 4
10 10 4
10 4 4
1 4 4
1 4 1
10 4 1
1 4 0
10 4 0
10 4 10
1 4 10
0 4 0
0 4 1
0 4 4
0 4 10

CELLS 18 162
8 30 29 31 32 21 20 14 13 
8 18 19 20 21 3 11 14 13 
8 0 8 15 12 18 19 20 21 
8 23 22 10 7 30 29 31 32 
8 27 28 29 30 12 15 20 21 
8 4 9 22 23 27 28 29 30 
8 40 38 39 41 24 25 16 2 
8 19 20 14 11 40 38 39 41 
8 36 37 38 39 35 34 25 16 
8 31 29 20 14 36 37 38 39 
8 10 22 29 31 42 43 37 36 
8 42 43 37 36 6 26 34 35 
8 8 15 20 19 44 45 38 40 
8 44 45 38 40 1 17 25 24 
8 28 29 20 15 46 37 38 45 
8 46 37 38 45 33 34 25 17 
8 9 22 29 28 47 43 37 46 
8 47 43 37 46 5 26 34 33 

CELL_TYPES 18
12 
12 
12 
12 
12 
12 
12 
12 
12 
12 
12 
12 
12 
12 
12 
12 
12 
12 
POINT_DATA 48
SCALARS GMDS_ID int 1
LOOKUP_TABLE default
0 1 2 3 4 5 6 7 8 9 10 11 12 13 14 15 16 17 18 19 20 21 22 23 24 25 26 27 28 29 30 31 32 33 34 35 36 37 38 39 40 41 42 43 44 45 46 47 
SCALARS geom_link_dim int 1
LOOKUP_TABLE default
1 1 1 1 1 1 1 1 2 2 2 2 2 2 3 3 2 2 2 3 0 3 3 2 2 3 2 2 3 0 3 3 2 2 3 2 3 0 0 3 3 2 2 3 2 3 3 2 
SCALARS geom_link_id int 1
LOOKUP_TABLE default
10 12 16 13 9 11 15 14 19 29 26 31 21 33 13 10 27 32 20 11 0 12 18 28 30 17 25 21 10 0 12 13 33 32 17 27 13 -1 -1 13 11 31 26 18 19 10 10 29 


CELL_DATA 18
SCALARS GMDS_ID int 1
LOOKUP_TABLE default
0 1 2 3 4 5 6 7 10 11 16 17 18 19 20 21 22 23 

SCALARS is_in int 1
LOOKUP_TABLE default
1 1 1 1 1 1 1 1 1 1 1 1 1 1 1 1 1 1 

SCALARS geom_link_dim int 1
LOOKUP_TABLE default
0 0 0 0 0 0 0 0 0 0 0 0 0 0 0 0 0 0 

SCALARS geom_link_id int 1
LOOKUP_TABLE default
0 0 0 0 0 0 -1 -1 -1 -1 -1 -1 -1 -1 -1 -1 -1 -1 

