# vtk DataFile Version 3.0
Generated by GMDS VTK Writer

ASCII
DATASET UNSTRUCTURED_GRID
POINTS 125 float
0 0 0
0 10 0
10 10 0
10 0 0
0 0 10
0 10 10
10 10 10
10 0 10
6 0 0
6 10 0
6 10 10
6 0 10
0 0 8
0 10 8
6 10 8
6 0 8
10 10 8
10 0 8
0 0 6
0 10 6
6 10 6
6 0 6
10 10 6
10 0 6
0 6 0
6 6 0
6 6 6
0 6 6
0 6 8
6 6 8
6 6 10
0 6 10
10 6 8
10 6 10
10 6 0
10 6 6
8 6 0
8 6 6
8 10 6
8 10 0
8 0 0
8 0 6
8 0 10
8 0 8
8 6 8
8 6 10
8 10 8
8 10 10
0 4 0
6 4 0
6 4 6
0 4 6
6 4 10
6 4 8
8 4 8
8 4 10
8 4 0
8 4 6
10 4 6
10 4 0
0 4 8
0 4 10
10 4 8
10 4 10
8 10 4
8 6 4
10 6 4
10 10 4
6 10 4
6 6 4
0 6 4
0 10 4
0 4 4
6 4 4
0 0 4
6 0 4
10 0 4
8 0 4
8 4 4
10 4 4
1 10 4
1 6 4
1 6 6
1 10 6
1 10 0
1 6 0
1 6 10
1 6 8
1 10 8
1 10 10
1 0 10
1 0 8
1 4 8
1 4 10
1 0 6
1 4 6
1 4 0
1 4 4
1 0 0
1 0 4
1 8 8
1 8 10
6 8 10
6 8 8
0 8 8
0 8 10
1 8 0
1 8 4
6 8 4
6 8 0
8 8 4
8 8 6
6 8 6
8 8 0
0 8 0
0 8 4
8 8 10
8 8 8
10 8 10
10 8 8
10 8 4
10 8 6
10 8 0
1 8 6
0 8 6

CELLS 63 567
8 114 115 107 106 1 71 80 84 
8 28 31 86 87 104 105 101 100 
8 100 101 102 103 88 89 10 14 
8 104 105 101 100 13 5 89 88 
8 4 12 60 61 90 91 92 93 
8 24 70 81 85 114 115 107 106 
8 109 113 110 108 9 39 64 68 
8 52 53 54 55 30 29 44 45 
8 11 15 43 42 52 53 54 55 
8 25 36 65 69 109 113 110 108 
8 108 110 111 112 68 64 38 20 
8 69 65 37 26 108 110 111 112 
8 106 107 108 109 84 80 68 9 
8 85 81 69 25 106 107 108 109 
8 42 43 17 7 55 54 62 63 
8 55 54 62 63 45 44 32 33 
8 15 21 41 43 53 50 57 54 
8 53 50 57 54 29 26 37 44 
8 43 41 23 17 54 57 58 62 
8 54 57 58 62 44 37 35 32 
8 87 86 30 29 100 101 102 103 
8 3 40 56 59 76 77 78 79 
8 76 77 78 79 23 41 57 58 
8 59 56 36 34 79 78 65 66 
8 79 78 65 66 58 57 37 35 
8 8 40 56 49 75 77 78 73 
8 75 77 78 73 21 41 57 50 
8 49 56 36 25 73 78 65 69 
8 73 78 65 69 50 57 37 26 
8 90 91 92 93 11 15 53 52 
8 61 60 28 31 93 92 87 86 
8 93 92 87 86 52 53 29 30 
8 12 18 51 60 91 94 95 92 
8 91 94 95 92 15 21 50 53 
8 60 51 27 28 92 95 82 87 
8 92 95 82 87 53 50 26 29 
8 24 48 72 70 85 96 97 81 
8 85 96 97 81 25 49 73 69 
8 70 72 51 27 81 97 95 82 
8 81 97 95 82 69 73 50 26 
8 0 48 72 74 98 96 97 99 
8 98 96 97 99 8 49 73 75 
8 74 72 51 18 99 97 95 94 
8 99 97 95 94 75 73 50 21 
8 29 30 45 44 103 102 116 117 
8 103 102 116 117 14 10 47 46 
8 44 45 33 32 117 116 118 119 
8 117 116 118 119 46 47 6 16 
8 66 65 37 35 120 110 111 121 
8 120 110 111 121 67 64 38 22 
8 34 36 65 66 122 113 110 120 
8 122 113 110 120 2 39 64 67 
8 112 103 117 111 20 14 46 38 
8 37 44 32 35 111 117 119 121 
8 111 117 119 121 38 46 16 22 
8 82 81 69 26 123 107 108 112 
8 123 107 108 112 83 80 68 20 
8 27 70 81 82 124 115 107 123 
8 124 115 107 123 19 71 80 83 
8 27 28 87 82 124 104 100 123 
8 124 104 100 123 19 13 88 83 
8 82 87 29 26 123 100 103 112 
8 123 100 103 112 83 88 14 20 

CELL_TYPES 63
12 
12 
12 
12 
12 
12 
12 
12 
12 
12 
12 
12 
12 
12 
12 
12 
12 
12 
12 
12 
12 
12 
12 
12 
12 
12 
12 
12 
12 
12 
12 
12 
12 
12 
12 
12 
12 
12 
12 
12 
12 
12 
12 
12 
12 
12 
12 
12 
12 
12 
12 
12 
12 
12 
12 
12 
12 
12 
12 
12 
12 
12 
12 
POINT_DATA 125
SCALARS GMDS_ID int 1
LOOKUP_TABLE default
0 1 2 3 4 5 6 7 8 9 10 11 12 13 14 15 16 17 18 19 20 21 22 23 24 25 26 27 28 29 30 31 32 33 34 35 36 37 38 39 40 41 42 43 44 45 46 47 48 49 50 51 52 53 54 55 56 57 58 59 60 61 62 63 64 65 66 67 68 69 70 71 72 73 74 75 76 77 78 79 80 81 82 83 84 85 86 87 88 89 90 91 92 93 94 95 96 97 98 99 100 101 102 103 104 105 106 107 108 109 110 111 112 113 114 115 116 117 118 119 120 121 122 123 124 
SCALARS geom_link_dim int 1
LOOKUP_TABLE default
1 1 1 1 1 1 1 1 2 2 2 2 2 2 3 3 2 2 2 2 3 3 2 2 2 3 1 3 3 1 3 2 3 2 2 3 3 1 3 2 2 3 2 3 1 3 3 2 2 3 0 3 3 0 0 3 3 0 3 2 3 2 3 2 3 0 3 2 3 0 3 2 3 0 2 3 2 3 0 3 3 0 0 3 2 3 3 0 3 2 2 3 0 3 3 0 3 0 2 3 0 3 3 1 3 2 3 0 0 3 0 1 1 3 2 3 3 1 2 3 3 3 2 0 3 
SCALARS geom_link_id int 1
LOOKUP_TABLE default
10 12 16 13 9 11 15 14 20 30 25 28 21 32 17 12 27 33 21 32 17 12 27 33 19 11 2 10 10 1 18 29 13 26 31 13 11 6 17 30 20 12 28 12 5 18 17 25 19 11 0 10 18 0 0 18 11 0 13 31 10 29 13 26 17 0 13 27 17 0 10 32 10 0 21 12 33 12 0 13 17 0 0 17 30 11 18 0 17 25 28 12 0 18 12 0 11 0 20 12 0 18 18 3 10 29 11 0 0 11 0 8 4 11 19 10 18 7 26 13 13 13 31 0 10 


CELL_DATA 63
SCALARS GMDS_ID int 1
LOOKUP_TABLE default
1 3 4 5 6 8 9 10 11 13 26 27 28 29 30 31 32 33 34 35 36 37 38 39 40 41 42 43 44 45 46 47 48 49 50 51 52 53 54 55 56 57 58 59 60 61 62 63 64 65 66 67 69 70 71 72 73 74 75 76 77 78 79 

SCALARS is_in int 1
LOOKUP_TABLE default
1 1 1 1 1 1 1 1 1 1 1 1 1 1 1 1 1 1 1 1 1 1 1 1 1 1 1 1 1 1 1 1 1 1 1 1 1 1 1 1 1 0 1 1 1 1 1 1 1 1 1 1 1 1 1 1 1 1 1 1 1 1 1 

SCALARS geom_link_dim int 1
LOOKUP_TABLE default
0 0 0 0 0 0 0 0 0 0 0 0 0 0 0 0 0 0 0 0 0 0 0 0 0 0 0 0 0 0 0 0 0 0 0 0 0 0 0 0 0 0 0 0 0 0 0 0 0 0 0 0 0 0 0 0 0 0 0 0 0 0 0 

SCALARS geom_link_id int 1
LOOKUP_TABLE default
0 0 0 0 0 0 0 0 0 0 0 0 0 0 0 0 0 0 0 0 0 0 0 0 0 0 0 0 0 0 0 0 0 0 0 0 0 0 0 0 0 0 0 0 0 0 0 0 0 0 0 0 0 0 0 0 0 0 0 0 0 0 0 

