# vtk DataFile Version 3.0
Generated by GMDS VTK Writer

ASCII
DATASET UNSTRUCTURED_GRID
POINTS 180 float
0 0 0
0 10 0
10 10 0
10 0 0
0 0 10
0 10 10
10 10 10
10 0 10
6 0 0
6 10 0
6 10 10
6 0 10
0 0 8
0 10 8
6 10 8
6 0 8
10 10 8
10 0 8
0 0 6
0 10 6
6 10 6
6 0 6
10 10 6
10 0 6
0 6 0
6 6 0
6 6 6
0 6 6
0 6 8
6 6 8
6 6 10
0 6 10
10 6 8
10 6 10
10 6 0
10 6 6
8 6 0
8 6 6
8 10 6
8 10 0
8 0 0
8 0 6
8 0 10
8 0 8
8 6 8
8 6 10
8 10 8
8 10 10
0 4 0
6 4 0
6 4 6
0 4 6
6 4 10
6 4 8
8 4 8
8 4 10
8 4 0
8 4 6
10 4 6
10 4 0
0 4 8
0 4 10
10 4 8
10 4 10
8 10 4
8 6 4
10 6 4
10 10 4
6 10 4
6 6 4
0 6 4
0 10 4
0 4 4
6 4 4
0 0 4
6 0 4
10 0 4
8 0 4
8 4 4
10 4 4
1 10 4
1 6 4
1 6 6
1 10 6
1 10 0
1 6 0
1 6 10
1 6 8
1 10 8
1 10 10
1 0 10
1 0 8
1 4 8
1 4 10
1 0 6
1 4 6
1 4 0
1 4 4
1 0 0
1 0 4
1 8 8
1 8 10
6 8 10
6 8 8
0 8 8
0 8 10
1 8 0
1 8 4
6 8 4
6 8 0
8 8 4
8 8 6
6 8 6
8 8 0
0 8 0
0 8 4
8 8 10
8 8 8
10 8 10
10 8 8
10 8 4
10 8 6
10 8 0
1 8 6
0 8 6
4 8 4
4 8 0
4 10 0
4 10 4
4 6 4
4 6 0
4 8 10
4 8 8
4 10 8
4 10 10
4 6 10
4 6 8
4 0 10
4 0 8
4 4 8
4 4 10
4 0 6
4 4 6
4 6 6
4 4 0
4 4 4
4 0 0
4 0 4
4 8 6
4 10 6
6 1 10
6 1 8
8 1 8
8 1 10
4 1 10
4 1 8
1 1 10
1 1 8
10 1 8
10 1 10
6 1 6
8 1 6
10 1 6
10 1 0
8 1 0
8 1 4
10 1 4
6 1 0
6 1 4
0 1 10
0 1 8
0 1 6
1 1 6
0 1 0
0 1 4
1 1 4
1 1 0
4 1 6
4 1 4
4 1 0

CELLS 99 891
8 81 85 106 107 129 130 126 125 
8 114 115 107 106 1 71 80 84 
8 28 31 86 87 104 105 101 100 
8 163 164 165 166 59 56 78 79 
8 104 105 101 100 13 5 89 88 
8 125 126 127 128 108 109 9 68 
8 24 70 81 85 114 115 107 106 
8 109 113 110 108 9 39 64 68 
8 52 53 54 55 30 29 44 45 
8 25 36 65 69 109 113 110 108 
8 92 95 82 87 139 142 143 136 
8 140 139 136 135 52 53 29 30 
8 85 96 97 81 130 144 145 129 
8 139 142 143 136 53 50 26 29 
8 93 92 87 86 140 139 136 135 
8 135 136 132 131 30 29 103 102 
8 86 87 100 101 135 136 132 131 
8 131 132 133 134 102 103 14 10 
8 101 100 88 89 131 132 133 134 
8 129 130 126 125 69 25 109 108 
8 108 110 111 112 68 64 38 20 
8 69 65 37 26 108 110 111 112 
8 166 165 161 162 79 78 57 58 
8 76 77 41 23 166 165 161 162 
8 55 54 62 63 45 44 32 33 
8 53 50 57 54 29 26 37 44 
8 54 57 58 62 44 37 35 32 
8 3 40 77 76 163 164 165 166 
8 59 56 36 34 79 78 65 66 
8 79 78 65 66 58 57 37 35 
8 49 56 36 25 73 78 65 69 
8 73 78 65 69 50 57 37 26 
8 152 161 162 158 54 57 58 62 
8 61 60 28 31 93 92 87 86 
8 43 41 23 17 152 161 162 158 
8 151 160 161 152 53 50 57 54 
8 60 51 27 28 92 95 82 87 
8 15 21 41 43 151 160 161 152 
8 24 48 72 70 85 96 97 81 
8 153 152 158 159 55 54 62 63 
8 70 72 51 27 81 97 95 82 
8 42 43 17 7 153 152 158 159 
8 156 157 155 154 93 92 139 140 
8 90 91 138 137 156 157 155 154 
8 29 30 45 44 103 102 116 117 
8 103 102 116 117 14 10 47 46 
8 44 45 33 32 117 116 118 119 
8 117 116 118 119 46 47 6 16 
8 66 65 37 35 120 110 111 121 
8 120 110 111 121 67 64 38 22 
8 34 36 65 66 122 113 110 120 
8 122 113 110 120 2 39 64 67 
8 107 106 84 80 125 126 127 128 
8 112 103 117 111 20 14 46 38 
8 37 44 32 35 111 117 119 121 
8 111 117 119 121 38 46 16 22 
8 154 155 151 150 140 139 53 52 
8 137 138 15 11 154 155 151 150 
8 27 70 81 82 124 115 107 123 
8 124 115 107 123 19 71 80 83 
8 27 28 87 82 124 104 100 123 
8 124 104 100 123 19 13 88 83 
8 150 151 152 153 52 53 54 55 
8 11 15 43 42 150 151 152 153 
8 130 144 145 129 25 49 73 69 
8 81 97 95 82 129 145 142 143 
8 129 145 142 143 69 73 50 26 
8 81 82 123 107 129 143 148 125 
8 129 143 148 125 69 26 112 108 
8 107 123 83 80 125 148 149 128 
8 125 148 149 128 108 112 20 68 
8 82 87 100 123 143 136 132 148 
8 143 136 132 148 26 29 103 112 
8 123 100 88 83 148 132 133 149 
8 148 132 133 149 112 103 14 20 
8 8 40 77 75 167 164 165 168 
8 167 164 165 168 49 56 78 73 
8 75 77 41 21 168 165 161 160 
8 168 165 161 160 73 78 57 50 
8 4 12 91 90 169 170 157 156 
8 169 170 157 156 61 60 92 93 
8 12 18 94 91 170 171 172 157 
8 170 171 172 157 60 51 95 92 
8 0 74 99 98 173 174 175 176 
8 173 174 175 176 48 72 97 96 
8 18 74 99 94 171 174 175 172 
8 171 174 175 172 51 72 97 95 
8 91 94 141 138 157 172 177 155 
8 157 172 177 155 92 95 142 139 
8 138 141 21 15 155 177 160 151 
8 155 177 160 151 139 142 50 53 
8 98 99 147 146 176 175 178 179 
8 176 175 178 179 96 97 145 144 
8 146 147 75 8 179 178 168 167 
8 179 178 168 167 144 145 73 49 
8 94 99 147 141 172 175 178 177 
8 172 175 178 177 95 97 145 142 
8 141 147 75 21 177 178 168 160 
8 177 178 168 160 142 145 73 50 

CELL_TYPES 99
12 
12 
12 
12 
12 
12 
12 
12 
12 
12 
12 
12 
12 
12 
12 
12 
12 
12 
12 
12 
12 
12 
12 
12 
12 
12 
12 
12 
12 
12 
12 
12 
12 
12 
12 
12 
12 
12 
12 
12 
12 
12 
12 
12 
12 
12 
12 
12 
12 
12 
12 
12 
12 
12 
12 
12 
12 
12 
12 
12 
12 
12 
12 
12 
12 
12 
12 
12 
12 
12 
12 
12 
12 
12 
12 
12 
12 
12 
12 
12 
12 
12 
12 
12 
12 
12 
12 
12 
12 
12 
12 
12 
12 
12 
12 
12 
12 
12 
12 
POINT_DATA 180
SCALARS GMDS_ID int 1
LOOKUP_TABLE default
0 1 2 3 4 5 6 7 8 9 10 11 12 13 14 15 16 17 18 19 20 21 22 23 24 25 26 27 28 29 30 31 32 33 34 35 36 37 38 39 40 41 42 43 44 45 46 47 48 49 50 51 52 53 54 55 56 57 58 59 60 61 62 63 64 65 66 67 68 69 70 71 72 73 74 75 76 77 78 79 80 81 82 83 84 85 86 87 88 89 90 91 92 93 94 95 96 97 98 99 100 101 102 103 104 105 106 107 108 109 110 111 112 113 114 115 116 117 118 119 120 121 122 123 124 125 126 127 128 129 130 131 132 133 134 135 136 137 138 139 140 141 142 143 144 145 146 147 148 149 150 151 152 153 154 155 156 157 158 159 160 161 162 163 164 165 166 167 168 169 170 171 172 173 174 175 176 177 178 179 
SCALARS geom_link_dim int 1
LOOKUP_TABLE default
1 1 1 1 1 1 1 1 2 2 2 2 2 2 3 3 2 2 2 2 3 3 2 2 2 3 1 3 3 1 3 2 3 2 2 3 3 1 3 2 2 3 2 3 1 3 3 2 2 3 0 3 3 0 0 3 3 0 3 2 3 2 3 2 3 0 3 2 3 0 3 2 3 0 2 3 2 3 0 3 3 0 0 3 2 3 3 0 3 2 2 3 0 3 3 0 3 0 2 3 0 3 3 1 3 2 3 0 0 3 0 1 1 3 2 3 3 1 2 3 3 3 2 0 3 0 3 2 3 0 3 3 0 3 2 3 0 2 3 0 3 3 0 0 3 0 2 3 0 3 3 0 0 3 3 0 3 0 3 2 0 0 3 2 3 0 3 3 0 2 3 3 0 2 3 0 3 0 0 3 
SCALARS geom_link_id int 1
LOOKUP_TABLE default
10 12 16 13 9 11 15 14 20 30 25 28 21 32 17 12 27 33 21 32 17 12 27 33 19 11 2 10 10 1 18 29 13 26 31 13 11 6 17 30 20 12 28 12 5 18 17 25 19 11 0 10 18 0 0 18 11 0 13 31 10 29 13 26 17 0 13 27 17 0 10 32 10 0 21 12 33 12 0 13 17 0 0 17 30 11 18 0 17 25 28 12 0 18 12 0 11 0 20 12 0 18 18 3 10 29 11 0 0 11 0 8 4 11 19 10 18 7 26 13 13 13 31 0 10 0 11 30 17 0 11 18 0 17 25 18 0 28 12 0 18 12 0 0 11 0 20 12 0 17 18 -1 -1 18 18 -1 18 -1 13 26 -1 -1 13 31 11 -1 13 11 -1 29 10 10 -1 19 10 -1 11 -1 -1 11 


CELL_DATA 99
SCALARS GMDS_ID int 1
LOOKUP_TABLE default
0 1 3 4 5 7 8 9 10 13 14 15 16 17 18 21 22 23 24 25 26 27 28 29 31 33 35 36 39 40 43 44 45 46 47 49 50 51 52 53 54 55 57 59 60 61 62 63 64 65 66 67 68 69 70 71 72 73 74 75 76 77 78 79 80 81 82 87 88 89 90 91 92 93 94 95 96 97 98 99 100 101 102 103 104 105 106 107 108 109 110 111 112 113 114 115 116 117 118 

SCALARS is_in int 1
LOOKUP_TABLE default
1 1 1 1 1 1 1 1 1 1 1 1 1 1 1 1 1 1 1 1 1 1 1 1 1 1 1 1 1 1 1 1 1 1 1 1 1 1 1 1 1 1 1 1 1 1 1 1 1 1 1 1 1 1 1 1 1 1 1 1 1 1 1 1 1 1 1 1 1 1 1 1 1 1 1 1 1 1 1 1 1 1 1 1 1 1 1 1 1 1 1 1 0 1 1 1 1 1 1 

SCALARS geom_link_dim int 1
LOOKUP_TABLE default
0 0 0 0 0 0 0 0 0 0 0 0 0 0 0 0 0 0 0 0 0 0 0 0 0 0 0 0 0 0 0 0 0 0 0 0 0 0 0 0 0 0 0 0 0 0 0 0 0 0 0 0 0 0 0 0 0 0 0 0 0 0 0 0 0 0 0 0 0 0 0 0 0 0 0 0 0 0 0 0 0 0 0 0 0 0 0 0 0 0 0 0 0 0 0 0 0 0 0 

SCALARS geom_link_id int 1
LOOKUP_TABLE default
0 0 0 -1 0 0 0 0 0 0 0 0 0 0 0 0 0 0 0 0 0 0 -1 -1 0 0 0 -1 0 0 0 0 -1 0 -1 -1 0 -1 0 -1 0 -1 -1 -1 0 0 0 0 0 0 0 0 0 0 0 0 -1 -1 0 0 0 0 -1 -1 0 0 0 0 0 0 0 0 0 0 0 -1 -1 -1 -1 -1 -1 -1 -1 -1 -1 -1 -1 -1 -1 -1 -1 -1 -1 -1 -1 -1 -1 -1 -1 

