# vtk DataFile Version 3.0
Generated by GMDS VTK Writer

ASCII
DATASET UNSTRUCTURED_GRID
POINTS 64 float
0 0 0
0 10 0
10 10 0
10 0 0
0 0 10
0 10 10
10 10 10
10 0 10
0 1 0
0 1 10
10 1 10
10 1 0
0 0 1
10 0 1
10 1 1
0 1 1
10 10 1
0 10 1
1 0 0
1 1 0
1 1 1
1 0 1
1 1 10
1 0 10
1 10 0
1 10 1
1 10 10
0 0 4
0 1 4
1 1 4
1 0 4
10 1 4
10 0 4
0 10 4
1 10 4
10 10 4
10 4 4
1 4 4
1 4 1
10 4 1
1 4 0
10 4 0
10 4 10
1 4 10
0 4 0
0 4 1
0 4 4
0 4 10
4 1 4
4 0 4
4 0 1
4 1 1
4 1 10
4 0 10
4 4 0
4 4 1
4 10 1
4 10 0
4 1 0
4 0 0
4 4 4
4 10 4
4 4 10
4 10 10

CELLS 27 243
8 0 8 15 12 18 19 20 21 
8 27 28 29 30 12 15 20 21 
8 4 9 22 23 27 28 29 30 
8 22 23 30 29 52 53 49 48 
8 40 38 25 24 54 55 56 57 
8 29 30 21 20 48 49 50 51 
8 48 49 50 51 31 32 13 14 
8 52 53 49 48 10 7 32 31 
8 54 55 56 57 41 39 16 2 
8 8 15 20 19 44 45 38 40 
8 44 45 38 40 1 17 25 24 
8 28 29 20 15 46 37 38 45 
8 46 37 38 45 33 34 25 17 
8 9 22 29 28 47 43 37 46 
8 47 43 37 46 5 26 34 33 
8 19 20 38 40 58 51 55 54 
8 58 51 55 54 11 14 39 41 
8 18 19 20 21 59 58 51 50 
8 59 58 51 50 3 11 14 13 
8 38 37 34 25 55 60 61 56 
8 55 60 61 56 39 36 35 16 
8 20 29 37 38 51 48 60 55 
8 51 48 60 55 14 31 36 39 
8 22 29 37 43 52 48 60 62 
8 52 48 60 62 10 31 36 42 
8 43 37 34 26 62 60 61 63 
8 62 60 61 63 42 36 35 6 

CELL_TYPES 27
12 
12 
12 
12 
12 
12 
12 
12 
12 
12 
12 
12 
12 
12 
12 
12 
12 
12 
12 
12 
12 
12 
12 
12 
12 
12 
12 
POINT_DATA 64
SCALARS GMDS_ID int 1
LOOKUP_TABLE default
0 1 2 3 4 5 6 7 8 9 10 11 12 13 14 15 16 17 18 19 20 21 22 23 24 25 26 27 28 29 30 31 32 33 34 35 36 37 38 39 40 41 42 43 44 45 46 47 48 49 50 51 52 53 54 55 56 57 58 59 60 61 62 63 
SCALARS geom_link_dim_0 int 1
LOOKUP_TABLE default
0 0 0 0 0 0 0 0 0 0 0 0 0 0 0 0 0 0 0 0 0 0 0 0 0 0 0 0 0 0 0 0 0 0 0 0 0 0 0 0 0 0 0 0 0 0 0 0 0 0 0 0 0 0 0 0 0 0 0 0 0 0 0 0 
SCALARS geom_link_id_0 int 1
LOOKUP_TABLE default
0 0 0 0 0 0 0 0 0 0 0 0 0 0 0 0 0 0 0 0 0 0 0 0 0 0 0 0 0 0 0 0 0 0 0 0 0 0 0 0 0 0 0 0 0 0 0 0 0 0 0 0 0 0 0 0 0 0 0 0 0 0 0 0 


CELL_DATA 27
SCALARS GMDS_ID int 1
LOOKUP_TABLE default
2 4 5 8 9 12 13 14 15 18 19 20 21 22 23 24 25 26 27 28 29 30 31 32 33 34 35 

SCALARS geom_link_dim_0 int 1
LOOKUP_TABLE default
0 0 0 0 0 0 0 0 0 0 0 0 0 0 0 0 0 0 0 0 0 0 0 0 0 0 0 

SCALARS geom_link_id_0 int 1
LOOKUP_TABLE default
0 0 0 0 0 0 0 0 0 0 0 0 0 0 0 0 0 0 0 0 0 0 0 0 0 0 0 

