# vtk DataFile Version 3.0
Generated by GMDS VTK Writer

ASCII
DATASET UNSTRUCTURED_GRID
POINTS 48 float
0 0 0
0 10 0
10 10 0
10 0 0
0 0 10
0 10 10
10 10 10
10 0 10
6 0 0
6 10 0
6 10 10
6 0 10
0 0 8
0 10 8
6 10 8
6 0 8
10 10 8
10 0 8
0 0 6
0 10 6
6 10 6
6 0 6
10 10 6
10 0 6
0 6 0
6 6 0
6 6 6
0 6 6
0 6 8
6 6 8
6 6 10
0 6 10
10 6 8
10 6 10
10 6 0
10 6 6
8 6 0
8 6 6
8 10 6
8 10 0
8 0 0
8 0 6
8 0 10
8 0 8
8 6 8
8 6 10
8 10 8
8 10 10

CELLS 18 162
8 24 25 26 27 1 9 20 19 
8 8 21 26 25 40 41 37 36 
8 42 43 44 45 7 17 32 33 
8 11 15 29 30 42 43 44 45 
8 0 8 21 18 24 25 26 27 
8 40 41 37 36 3 23 35 34 
8 36 37 38 39 34 35 22 2 
8 25 26 20 9 36 37 38 39 
8 12 15 11 4 28 29 30 31 
8 28 29 30 31 13 14 10 5 
8 18 21 15 12 27 26 29 28 
8 27 26 29 28 19 20 14 13 
8 30 29 14 10 45 44 46 47 
8 45 44 46 47 33 32 16 6 
8 15 21 26 29 43 41 37 44 
8 43 41 37 44 17 23 35 32 
8 29 26 20 14 44 37 38 46 
8 44 37 38 46 32 35 22 16 

CELL_TYPES 18
12 
12 
12 
12 
12 
12 
12 
12 
12 
12 
12 
12 
12 
12 
12 
12 
12 
12 
POINT_DATA 48
SCALARS GMDS_ID int 1
LOOKUP_TABLE default
0 1 2 3 4 5 6 7 8 9 10 11 12 13 14 15 16 17 18 19 20 21 22 23 24 25 26 27 28 29 30 31 32 33 34 35 36 37 38 39 40 41 42 43 44 45 46 47 
SCALARS geom_link_dim int 1
LOOKUP_TABLE default
1 1 1 1 1 1 1 1 2 2 2 2 2 2 3 3 2 2 2 2 3 3 2 2 2 3 0 3 3 0 3 2 3 2 2 3 3 0 3 2 2 3 2 3 0 3 3 2 
SCALARS geom_link_id int 1
LOOKUP_TABLE default
10 12 16 13 9 11 15 14 20 30 25 28 21 32 17 12 27 33 21 32 17 12 27 33 19 11 0 10 10 0 18 29 13 26 31 13 11 -1 17 30 20 12 28 12 -1 18 17 25 


CELL_DATA 18
SCALARS GMDS_ID int 1
LOOKUP_TABLE default
0 1 2 3 4 5 6 7 8 9 12 13 18 19 20 21 22 23 

SCALARS is_in int 1
LOOKUP_TABLE default
1 1 1 1 0 1 1 1 1 1 1 1 1 1 1 1 0 1 

SCALARS geom_link_dim int 1
LOOKUP_TABLE default
0 0 0 0 0 0 0 0 0 0 0 0 0 0 0 0 0 0 

SCALARS geom_link_id int 1
LOOKUP_TABLE default
0 -1 -1 -1 0 -1 -1 -1 0 0 0 0 -1 -1 -1 -1 -1 -1 

