# vtk DataFile Version 3.0
Generated by GMDS VTK Writer

ASCII
DATASET UNSTRUCTURED_GRID
POINTS 120 float
0 0 0
0 10 0
10 10 0
10 0 0
0 0 10
0 10 10
10 10 10
10 0 10
6 0 0
6 10 0
6 10 10
6 0 10
4 0 0
4 10 0
4 10 10
4 0 10
4 0 8
4 10 8
6 10 8
6 0 8
0 0 8
0 10 8
10 10 8
10 0 8
6 1 0
4 1 0
4 1 8
6 1 8
4 1 10
6 1 10
0 1 0
0 1 8
0 1 10
10 1 0
10 1 8
10 1 10
6 6 0
4 6 0
4 6 8
6 6 8
4 6 10
6 6 10
0 6 0
0 6 8
0 6 10
10 6 0
10 6 8
10 6 10
6 8 8
4 8 8
4 8 10
6 8 10
6 8 0
4 8 0
0 8 0
0 8 8
0 8 10
10 8 0
10 8 8
10 8 10
8 0 0
8 0 8
8 1 8
8 1 0
8 1 10
8 6 10
8 6 8
8 8 0
8 8 8
8 10 8
8 10 0
8 6 0
8 0 10
8 8 10
8 10 10
6 4 0
4 4 0
4 4 8
6 4 8
8 4 8
8 4 10
10 4 10
10 4 8
4 4 10
6 4 10
0 4 0
0 4 8
0 4 10
8 4 0
10 4 0
4 6 6
0 6 6
0 8 6
4 8 6
6 0 6
4 0 6
4 1 6
6 1 6
6 8 6
4 10 6
6 10 6
0 0 6
0 1 6
6 6 6
8 0 6
8 1 6
10 1 6
10 0 6
0 10 6
6 4 6
4 4 6
8 8 6
8 10 6
10 8 6
10 10 6
8 6 6
10 6 6
0 4 6
8 4 6
10 4 6

CELLS 60 540
8 0 12 25 30 101 95 96 102 
8 19 16 15 11 27 26 28 29 
8 52 53 13 9 98 93 99 100 
8 98 93 99 100 48 49 17 18 
8 101 95 96 102 20 16 26 31 
8 20 16 15 4 31 26 28 32 
8 48 49 50 51 18 17 14 10 
8 62 64 35 34 79 80 81 82 
8 39 38 40 41 48 49 50 51 
8 94 95 96 97 19 16 26 27 
8 8 12 25 24 94 95 96 97 
8 79 80 81 82 66 65 47 46 
8 43 38 40 44 55 49 50 56 
8 55 49 50 56 21 17 14 5 
8 27 26 28 29 78 77 83 84 
8 78 77 83 84 39 38 40 41 
8 37 42 54 53 90 91 92 93 
8 90 91 92 93 38 43 55 49 
8 11 19 27 29 72 61 62 64 
8 72 61 62 64 7 23 34 35 
8 48 51 10 18 68 73 74 69 
8 68 73 74 69 58 59 6 22 
8 39 41 51 48 66 65 73 68 
8 66 65 73 68 46 47 59 58 
8 31 26 28 32 86 77 83 87 
8 86 77 83 87 43 38 40 44 
8 27 29 64 62 78 84 80 79 
8 78 84 80 79 39 41 65 66 
8 36 37 53 52 103 90 93 98 
8 103 90 93 98 39 38 49 48 
8 60 63 33 3 104 105 106 107 
8 104 105 106 107 61 62 34 23 
8 8 24 63 60 94 97 105 104 
8 94 97 105 104 19 27 62 61 
8 53 54 1 13 93 92 108 99 
8 93 92 108 99 49 55 21 17 
8 75 76 37 36 109 110 90 103 
8 109 110 90 103 78 77 38 39 
8 24 25 76 75 97 96 110 109 
8 97 96 110 109 27 26 77 78 
8 9 52 67 70 100 98 111 112 
8 100 98 111 112 18 48 68 69 
8 70 67 57 2 112 111 113 114 
8 112 111 113 114 69 68 58 22 
8 36 52 67 71 103 98 111 115 
8 103 98 111 115 39 48 68 66 
8 71 67 57 45 115 111 113 116 
8 115 111 113 116 66 68 58 46 
8 25 30 85 76 96 102 117 110 
8 96 102 117 110 26 31 86 77 
8 76 85 42 37 110 117 91 90 
8 110 117 91 90 77 86 43 38 
8 33 63 88 89 106 105 118 119 
8 106 105 118 119 34 62 79 82 
8 89 88 71 45 119 118 115 116 
8 119 118 115 116 82 79 66 46 
8 24 63 88 75 97 105 118 109 
8 97 105 118 109 27 62 79 78 
8 75 88 71 36 109 118 115 103 
8 109 118 115 103 78 79 66 39 

CELL_TYPES 60
12 
12 
12 
12 
12 
12 
12 
12 
12 
12 
12 
12 
12 
12 
12 
12 
12 
12 
12 
12 
12 
12 
12 
12 
12 
12 
12 
12 
12 
12 
12 
12 
12 
12 
12 
12 
12 
12 
12 
12 
12 
12 
12 
12 
12 
12 
12 
12 
12 
12 
12 
12 
12 
12 
12 
12 
12 
12 
12 
12 
POINT_DATA 120
SCALARS GMDS_ID int 1
LOOKUP_TABLE default
0 1 2 3 4 5 6 7 8 9 10 11 12 13 14 15 16 17 18 19 20 21 22 23 24 25 26 27 28 29 30 31 32 33 34 35 36 37 38 39 40 41 42 43 44 45 46 47 48 49 50 51 52 53 54 55 56 57 58 59 60 61 62 63 64 65 66 67 68 69 70 71 72 73 74 75 76 77 78 79 80 81 82 83 84 85 86 87 88 89 90 91 92 93 94 95 96 97 98 99 100 101 102 103 104 105 106 107 108 109 110 111 112 113 114 115 116 117 118 119 
SCALARS geom_link_dim_0 int 1
LOOKUP_TABLE default
0 0 0 0 0 0 0 0 0 0 0 0 0 0 0 0 0 0 0 0 0 0 0 0 0 0 0 0 0 0 0 0 0 0 0 0 0 0 0 0 0 0 0 0 0 0 0 0 0 0 0 0 0 0 0 0 0 0 0 0 0 0 0 0 0 0 0 0 0 0 0 0 0 0 0 0 0 0 0 0 0 0 0 0 0 0 0 0 0 0 0 0 0 0 0 0 0 0 0 0 0 0 0 0 0 0 0 0 0 0 0 0 0 0 0 0 0 0 0 0 
SCALARS geom_link_id_0 int 1
LOOKUP_TABLE default
0 0 0 0 0 0 0 0 0 0 0 0 0 0 0 0 0 0 0 0 0 0 0 0 0 0 0 0 0 0 0 0 0 0 0 0 0 0 0 0 0 0 0 0 0 0 0 0 0 0 0 0 0 0 0 0 0 0 0 0 0 0 0 0 0 0 0 0 0 0 0 0 0 0 0 0 0 0 0 0 0 0 0 0 0 0 0 0 0 0 0 0 0 0 0 0 0 0 0 0 0 0 0 0 0 0 0 0 0 0 0 0 0 0 0 0 0 0 0 0 


CELL_DATA 60
SCALARS GMDS_ID int 1
LOOKUP_TABLE default
1 3 4 6 8 12 15 16 17 18 19 20 24 25 26 27 32 33 34 35 36 37 38 39 40 41 42 43 48 49 50 51 52 53 54 55 56 57 58 59 60 61 62 63 64 65 66 67 68 69 70 71 72 73 74 75 76 77 78 79 

SCALARS geom_link_dim_0 int 1
LOOKUP_TABLE default
0 0 0 0 0 0 0 0 0 0 0 0 0 0 0 0 0 0 0 0 0 0 0 0 0 0 0 0 0 0 0 0 0 0 0 0 0 0 0 0 0 0 0 0 0 0 0 0 0 0 0 0 0 0 0 0 0 0 0 0 

SCALARS geom_link_id_0 int 1
LOOKUP_TABLE default
0 0 0 0 0 0 0 0 0 0 0 0 0 0 0 0 0 0 0 0 0 0 0 0 0 0 0 0 0 0 0 0 0 0 0 0 0 0 0 0 0 0 0 0 0 0 0 0 0 0 0 0 0 0 0 0 0 0 0 0 

