# vtk DataFile Version 3.0
Generated by GMDS VTK Writer

ASCII
DATASET UNSTRUCTURED_GRID
POINTS 16 float
0 0 0
0 10 0
10 10 0
10 0 0
0 0 10
0 10 10
10 10 10
10 0 10
6 0 0
6 10 0
6 10 10
6 0 10
4 0 0
4 10 0
4 10 10
4 0 10

CELLS 3 27
8 0 1 5 4 12 13 14 15 
8 8 9 10 11 3 2 6 7 
8 12 13 14 15 8 9 10 11 

CELL_TYPES 3
12 
12 
12 
POINT_DATA 16
SCALARS GMDS_ID int 1
LOOKUP_TABLE default
0 1 2 3 4 5 6 7 8 9 10 11 12 13 14 15 
SCALARS geom_link_dim_0 int 1
LOOKUP_TABLE default
0 0 0 0 0 0 0 0 0 0 0 0 0 0 0 0 
SCALARS geom_link_id_0 int 1
LOOKUP_TABLE default
0 0 0 0 0 0 0 0 0 0 0 0 0 0 0 0 


CELL_DATA 3
SCALARS GMDS_ID int 1
LOOKUP_TABLE default
0 2 3 

SCALARS geom_link_dim_0 int 1
LOOKUP_TABLE default
0 0 0 

SCALARS geom_link_id_0 int 1
LOOKUP_TABLE default
0 0 0 

