# vtk DataFile Version 3.0
Generated by GMDS VTK Writer

ASCII
DATASET UNSTRUCTURED_GRID
POINTS 75 float
0 0 0
0 10 0
10 10 0
10 0 0
0 0 10
0 10 10
10 10 10
10 0 10
6 0 0
6 10 0
6 10 10
6 0 10
4 0 0
4 10 0
4 10 10
4 0 10
4 0 8
4 10 8
6 10 8
6 0 8
0 0 8
0 10 8
10 10 8
10 0 8
6 1 0
4 1 0
4 1 8
6 1 8
4 1 10
6 1 10
0 1 0
0 1 8
0 1 10
10 1 0
10 1 8
10 1 10
6 6 0
4 6 0
4 6 8
6 6 8
4 6 10
6 6 10
0 6 0
0 6 8
0 6 10
10 6 0
10 6 8
10 6 10
6 8 8
4 8 8
4 8 10
6 8 10
6 8 0
4 8 0
0 8 0
0 8 8
0 8 10
10 8 0
10 8 8
10 8 10
8 0 0
8 0 8
8 1 8
8 1 0
8 1 10
8 6 10
8 6 8
8 8 0
8 8 8
8 10 8
8 10 0
8 6 0
8 0 10
8 8 10
8 10 10

CELLS 170 510
2 36 39
2 1 13
2 24 36
2 0 12
2 24 63
2 13 9
2 25 37
2 12 8
2 50 51
2 8 24
2 49 50
2 16 26
2 17 14
2 13 17
2 12 16
2 16 15
2 27 39
2 48 51
2 26 38
2 19 27
2 5 14
2 14 10
2 4 15
2 15 11
2 38 39
2 49 48
2 63 62
2 12 25
2 9 18
2 18 10
2 8 19
2 19 11
2 36 37
2 18 17
2 60 63
2 19 16
2 0 20
2 20 4
2 1 21
2 21 5
2 37 38
2 21 17
2 20 16
2 2 22
2 22 6
2 3 23
2 23 7
2 63 33
2 24 25
2 25 26
2 26 27
2 24 27
2 15 28
2 41 51
2 11 29
2 51 10
2 28 26
2 29 28
2 29 27
2 0 30
2 39 48
2 20 31
2 48 18
2 30 25
2 26 31
2 30 31
2 4 32
2 38 49
2 32 28
2 32 31
2 3 33
2 40 50
2 23 34
2 50 14
2 33 34
2 7 35
2 49 17
2 35 34
2 28 40
2 60 61
2 29 41
2 61 62
2 38 40
2 40 41
2 39 41
2 30 42
2 19 61
2 31 43
2 60 3
2 37 42
2 38 43
2 42 43
2 32 44
2 8 60
2 40 44
2 43 44
2 33 45
2 27 62
2 34 46
2 62 34
2 45 46
2 35 47
2 61 23
2 46 47
2 36 52
2 52 9
2 37 53
2 53 13
2 52 53
2 53 49
2 52 48
2 42 54
2 54 1
2 43 55
2 55 21
2 53 54
2 49 55
2 54 55
2 44 56
2 56 5
2 50 56
2 55 56
2 45 57
2 57 2
2 46 58
2 58 22
2 57 58
2 47 59
2 59 6
2 58 59
2 29 64
2 64 35
2 41 65
2 65 47
2 39 66
2 66 46
2 62 64
2 64 65
2 66 65
2 62 66
2 52 67
2 67 57
2 48 68
2 68 58
2 18 69
2 69 22
2 9 70
2 70 2
2 68 67
2 69 68
2 70 69
2 70 67
2 36 71
2 71 45
2 71 66
2 66 68
2 71 67
2 63 71
2 11 72
2 72 7
2 72 61
2 72 64
2 51 73
2 73 59
2 10 74
2 74 6
2 68 73
2 74 73
2 74 69
2 65 73

CELL_TYPES 170
3 
3 
3 
3 
3 
3 
3 
3 
3 
3 
3 
3 
3 
3 
3 
3 
3 
3 
3 
3 
3 
3 
3 
3 
3 
3 
3 
3 
3 
3 
3 
3 
3 
3 
3 
3 
3 
3 
3 
3 
3 
3 
3 
3 
3 
3 
3 
3 
3 
3 
3 
3 
3 
3 
3 
3 
3 
3 
3 
3 
3 
3 
3 
3 
3 
3 
3 
3 
3 
3 
3 
3 
3 
3 
3 
3 
3 
3 
3 
3 
3 
3 
3 
3 
3 
3 
3 
3 
3 
3 
3 
3 
3 
3 
3 
3 
3 
3 
3 
3 
3 
3 
3 
3 
3 
3 
3 
3 
3 
3 
3 
3 
3 
3 
3 
3 
3 
3 
3 
3 
3 
3 
3 
3 
3 
3 
3 
3 
3 
3 
3 
3 
3 
3 
3 
3 
3 
3 
3 
3 
3 
3 
3 
3 
3 
3 
3 
3 
3 
3 
3 
3 
3 
3 
3 
3 
3 
3 
3 
3 
3 
3 
3 
3 
3 
3 
3 
3 
3 
3 
POINT_DATA 75
SCALARS GMDS_ID int 1
LOOKUP_TABLE default
0 1 2 3 4 5 6 7 8 9 10 11 12 13 14 15 16 17 18 19 20 21 22 23 24 25 26 27 28 29 30 31 32 33 34 35 36 37 38 39 40 41 42 43 44 45 46 47 48 49 50 51 52 53 54 55 56 57 58 59 60 61 62 63 64 65 66 67 68 69 70 71 72 73 74 
SCALARS geom_link_dim_0 int 1
LOOKUP_TABLE default
0 0 0 0 0 0 0 0 0 0 0 0 0 0 0 0 0 0 0 0 0 0 0 0 0 0 0 0 0 0 0 0 0 0 0 0 0 0 0 0 0 0 0 0 0 0 0 0 0 0 0 0 0 0 0 0 0 0 0 0 0 0 0 0 0 0 0 0 0 0 0 0 0 0 0 
SCALARS geom_link_id_0 int 1
LOOKUP_TABLE default
0 0 0 0 0 0 0 0 0 0 0 0 0 0 0 0 0 0 0 0 0 0 0 0 0 0 0 0 0 0 0 0 0 0 0 0 0 0 0 0 0 0 0 0 0 0 0 0 0 0 0 0 0 0 0 0 0 0 0 0 0 0 0 0 0 0 0 0 0 0 0 0 0 0 0 


CELL_DATA 170
SCALARS GMDS_ID int 1
LOOKUP_TABLE default
0 1 2 3 4 5 6 7 8 9 10 11 12 14 16 18 20 21 22 23 24 25 26 27 28 29 30 31 32 33 34 35 36 37 38 39 40 41 42 43 44 45 46 47 48 49 50 52 54 55 56 57 58 59 60 61 62 63 64 65 66 67 68 69 70 71 72 73 74 75 76 77 78 79 82 83 84 86 87 88 89 90 91 92 93 94 95 96 97 98 99 100 101 102 103 104 105 106 107 108 111 112 113 115 116 117 118 119 120 121 122 123 124 125 126 127 128 129 130 131 132 133 134 135 136 137 140 141 142 144 145 146 147 148 149 150 151 152 153 154 155 156 157 158 159 160 161 162 163 164 165 166 167 168 169 170 171 172 173 174 175 176 177 178 179 180 181 182 183 184 

SCALARS geom_link_dim_0 int 1
LOOKUP_TABLE default
0 0 0 0 0 0 0 0 0 0 0 0 0 0 0 0 0 0 0 0 0 0 0 0 0 0 0 0 0 0 0 0 0 0 0 0 0 0 0 0 0 0 0 0 0 0 0 0 0 0 0 0 0 0 0 0 0 0 0 0 0 0 0 0 0 0 0 0 0 0 0 0 0 0 0 0 0 0 0 0 0 0 0 0 0 0 0 0 0 0 0 0 0 0 0 0 0 0 0 0 0 0 0 0 0 0 0 0 0 0 0 0 0 0 0 0 0 0 0 0 0 0 0 0 0 0 0 0 0 0 0 0 0 0 0 0 0 0 0 0 0 0 0 0 0 0 0 0 0 0 0 0 0 0 0 0 0 0 0 0 0 0 0 0 0 0 0 0 0 0 

SCALARS geom_link_id_0 int 1
LOOKUP_TABLE default
0 0 0 0 0 0 0 0 0 0 0 0 0 0 0 0 0 0 0 0 0 0 0 0 0 0 0 0 0 0 0 0 0 0 0 0 0 0 0 0 0 0 0 0 0 0 0 0 0 0 0 0 0 0 0 0 0 0 0 0 0 0 0 0 0 0 0 0 0 0 0 0 0 0 0 0 0 0 0 0 0 0 0 0 0 0 0 0 0 0 0 0 0 0 0 0 0 0 0 0 0 0 0 0 0 0 0 0 0 0 0 0 0 0 0 0 0 0 0 0 0 0 0 0 0 0 0 0 0 0 0 0 0 0 0 0 0 0 0 0 0 0 0 0 0 0 0 0 0 0 0 0 0 0 0 0 0 0 0 0 0 0 0 0 0 0 0 0 0 0 

