# vtk DataFile Version 3.0
Generated by GMDS VTK Writer

ASCII
DATASET UNSTRUCTURED_GRID
POINTS 36 float
0 0 0
0 10 0
10 10 0
10 0 0
0 0 10
0 10 10
10 10 10
10 0 10
0 1 0
0 1 10
10 1 10
10 1 0
0 0 1
10 0 1
10 1 1
0 1 1
10 10 1
0 10 1
1 0 0
1 1 0
1 1 1
1 0 1
1 1 10
1 0 10
1 10 0
1 10 1
1 10 10
0 0 4
0 1 4
1 1 4
1 0 4
10 1 4
10 0 4
0 10 4
1 10 4
10 10 4

CELLS 75 225
2 27 12
2 3 13
2 29 20
2 4 27
2 0 12
2 28 15
2 15 20
2 18 3
2 0 18
2 8 19
2 0 8
2 8 1
2 4 9
2 9 5
2 7 10
2 10 6
2 3 11
2 11 2
2 20 14
2 22 29
2 19 11
2 30 21
2 11 14
2 8 15
2 23 30
2 13 14
2 27 28
2 12 15
2 2 16
2 1 17
2 16 14
2 9 28
2 17 15
2 12 21
2 21 13
2 18 19
2 19 20
2 21 20
2 18 21
2 9 22
2 22 10
2 4 23
2 23 7
2 23 22
2 1 24
2 24 2
2 17 25
2 25 16
2 24 19
2 20 25
2 24 25
2 5 26
2 26 6
2 26 22
2 28 29
2 29 30
2 27 30
2 10 31
2 31 14
2 7 32
2 32 13
2 31 29
2 32 31
2 32 30
2 5 33
2 33 17
2 26 34
2 34 25
2 33 28
2 29 34
2 33 34
2 6 35
2 35 16
2 35 31
2 35 34

CELL_TYPES 75
3 
3 
3 
3 
3 
3 
3 
3 
3 
3 
3 
3 
3 
3 
3 
3 
3 
3 
3 
3 
3 
3 
3 
3 
3 
3 
3 
3 
3 
3 
3 
3 
3 
3 
3 
3 
3 
3 
3 
3 
3 
3 
3 
3 
3 
3 
3 
3 
3 
3 
3 
3 
3 
3 
3 
3 
3 
3 
3 
3 
3 
3 
3 
3 
3 
3 
3 
3 
3 
3 
3 
3 
3 
3 
3 
POINT_DATA 36
SCALARS GMDS_ID int 1
LOOKUP_TABLE default
0 1 2 3 4 5 6 7 8 9 10 11 12 13 14 15 16 17 18 19 20 21 22 23 24 25 26 27 28 29 30 31 32 33 34 35 
SCALARS geom_link_dim int 1
LOOKUP_TABLE default
1 1 1 1 1 1 1 1 2 2 2 2 2 2 3 3 2 2 2 3 0 3 3 2 2 3 2 2 3 0 3 3 2 2 3 2 
SCALARS geom_link_id int 1
LOOKUP_TABLE default
10 12 16 13 9 11 15 14 19 29 26 31 21 33 13 10 27 32 20 11 0 12 18 28 30 17 25 21 10 -1 12 13 33 32 17 27 


CELL_DATA 75
SCALARS GMDS_ID int 1
LOOKUP_TABLE default
1 2 3 5 6 7 8 9 10 11 12 13 14 15 16 17 18 19 20 21 22 23 24 26 28 29 30 31 32 34 36 37 38 39 40 41 42 43 44 45 46 47 48 50 52 53 54 55 56 57 58 59 60 61 63 64 65 66 67 68 69 70 71 72 73 74 75 76 77 78 79 80 81 82 83 

SCALARS geom_link_dim int 1
LOOKUP_TABLE default
2 0 0 2 2 0 0 2 2 0 2 2 2 2 2 2 2 2 0 0 0 0 0 0 0 0 0 0 0 0 0 0 0 0 0 0 0 0 0 0 0 2 2 0 2 2 0 0 0 0 0 2 2 0 0 0 0 0 0 0 0 0 0 0 0 0 0 0 0 0 0 0 0 0 0 

SCALARS geom_link_id int 1
LOOKUP_TABLE default
21 0 -1 21 21 -1 0 20 20 0 19 19 29 29 26 26 31 31 0 -1 0 -1 0 0 -1 0 -1 0 0 0 0 -1 0 0 0 0 0 0 0 0 0 28 28 0 30 30 0 0 0 0 0 25 25 0 -1 -1 -1 -1 -1 -1 -1 -1 -1 -1 -1 -1 -1 -1 -1 -1 -1 -1 -1 -1 -1 

