# vtk DataFile Version 3.0
Generated by GMDS VTK Writer

ASCII
DATASET UNSTRUCTURED_GRID
POINTS 125 float
0 0 0
0 10 0
10 10 0
10 0 0
0 0 10
0 10 10
10 10 10
10 0 10
6 0 0
6 10 0
6 10 10
6 0 10
0 0 8
0 10 8
6 10 8
6 0 8
10 10 8
10 0 8
0 0 6
0 10 6
6 10 6
6 0 6
10 10 6
10 0 6
0 6 0
6 6 0
6 6 6
0 6 6
0 6 8
6 6 8
6 6 10
0 6 10
10 6 8
10 6 10
10 6 0
10 6 6
8 6 0
8 6 6
8 10 6
8 10 0
8 0 0
8 0 6
8 0 10
8 0 8
8 6 8
8 6 10
8 10 8
8 10 10
0 4 0
6 4 0
6 4 6
0 4 6
6 4 10
6 4 8
8 4 8
8 4 10
8 4 0
8 4 6
10 4 6
10 4 0
0 4 8
0 4 10
10 4 8
10 4 10
8 10 4
8 6 4
10 6 4
10 10 4
6 10 4
6 6 4
0 6 4
0 10 4
0 4 4
6 4 4
0 0 4
6 0 4
10 0 4
8 0 4
8 4 4
10 4 4
1 10 4
1 6 4
1 6 6
1 10 6
1 10 0
1 6 0
1 6 10
1 6 8
1 10 8
1 10 10
1 0 10
1 0 8
1 4 8
1 4 10
1 0 6
1 4 6
1 4 0
1 4 4
1 0 0
1 0 4
1 8 8
1 8 10
6 8 10
6 8 8
0 8 8
0 8 10
1 8 0
1 8 4
6 8 4
6 8 0
8 8 4
8 8 6
6 8 6
8 8 0
0 8 0
0 8 4
8 8 10
8 8 8
10 8 10
10 8 8
10 8 4
10 8 6
10 8 0
1 8 6
0 8 6

CELLS 300 900
2 9 39
2 9 68
2 20 38
2 25 69
2 25 36
2 13 5
2 26 37
2 12 4
2 71 80
2 81 69
2 18 12
2 85 25
2 85 106
2 104 100
2 87 100
2 18 51
2 30 102
2 8 49
2 103 14
2 0 48
2 39 2
2 20 14
2 36 34
2 19 13
2 14 10
2 15 11
2 83 20
2 101 89
2 103 102
2 16 6
2 69 26
2 17 7
2 49 25
2 37 35
2 21 50
2 24 85
2 21 15
2 19 83
2 86 101
2 103 100
2 27 82
2 22 16
2 80 68
2 23 17
2 51 27
2 38 22
2 31 105
2 68 20
2 28 104
2 83 80
2 104 13
2 66 65
2 65 37
2 39 64
2 29 103
2 30 29
2 102 10
2 31 28
2 66 35
2 34 66
2 50 26
2 48 24
2 33 32
2 29 26
2 28 27
2 64 38
2 36 65
2 1 84
2 84 9
2 82 26
2 32 35
2 8 40
2 40 3
2 21 41
2 41 23
2 67 64
2 11 42
2 42 7
2 15 43
2 43 17
2 29 44
2 44 32
2 30 45
2 45 33
2 42 43
2 67 22
2 44 45
2 2 67
2 14 46
2 46 16
2 10 47
2 47 6
2 47 46
2 43 41
2 37 44
2 46 38
2 11 52
2 52 30
2 15 53
2 53 29
2 43 54
2 54 44
2 42 55
2 55 45
2 52 53
2 53 54
2 55 54
2 52 55
2 40 56
2 56 36
2 41 57
2 57 37
2 23 58
2 58 35
2 3 59
2 59 34
2 82 81
2 58 57
2 70 81
2 59 56
2 50 57
2 49 56
2 12 60
2 60 28
2 4 61
2 61 31
2 102 101
2 101 100
2 61 60
2 53 50
2 60 51
2 17 62
2 62 32
2 7 63
2 63 33
2 62 54
2 63 62
2 63 55
2 57 54
2 62 58
2 69 65
2 68 64
2 24 70
2 70 27
2 1 71
2 71 19
2 105 5
2 100 88
2 48 72
2 72 51
2 49 73
2 73 50
2 104 105
2 69 73
2 70 72
2 0 74
2 74 18
2 8 75
2 75 21
2 105 101
2 75 73
2 74 72
2 3 76
2 76 23
2 40 77
2 77 41
2 56 78
2 78 57
2 59 79
2 79 58
2 76 77
2 77 78
2 78 79
2 76 79
2 65 78
2 66 79
2 75 77
2 73 78
2 85 81
2 84 80
2 31 86
2 86 30
2 28 87
2 87 29
2 13 88
2 88 14
2 5 89
2 89 10
2 87 86
2 89 88
2 82 87
2 88 83
2 4 90
2 90 11
2 12 91
2 91 15
2 60 92
2 92 53
2 61 93
2 93 52
2 90 91
2 91 92
2 92 93
2 90 93
2 87 92
2 86 93
2 18 94
2 94 21
2 51 95
2 95 50
2 91 94
2 94 95
2 95 92
2 82 95
2 48 96
2 96 49
2 72 97
2 97 73
2 85 96
2 96 97
2 81 97
2 95 97
2 0 98
2 98 8
2 74 99
2 99 75
2 98 96
2 97 99
2 98 99
2 94 99
2 106 84
2 81 107
2 107 80
2 69 108
2 108 68
2 25 109
2 109 9
2 107 106
2 108 107
2 109 108
2 109 106
2 65 110
2 110 64
2 37 111
2 111 38
2 26 112
2 112 20
2 110 108
2 111 110
2 112 111
2 112 108
2 36 113
2 113 39
2 109 113
2 113 110
2 24 114
2 114 1
2 70 115
2 115 71
2 114 115
2 115 107
2 114 106
2 45 116
2 116 47
2 44 117
2 117 46
2 102 116
2 117 116
2 103 117
2 33 118
2 118 6
2 32 119
2 119 16
2 118 116
2 119 118
2 119 117
2 66 120
2 120 67
2 35 121
2 121 22
2 110 120
2 121 111
2 121 120
2 34 122
2 122 2
2 122 113
2 122 120
2 112 103
2 111 117
2 119 121
2 82 123
2 123 83
2 107 123
2 112 123
2 27 124
2 124 19
2 124 115
2 124 123
2 124 104
2 123 100

CELL_TYPES 300
3 
3 
3 
3 
3 
3 
3 
3 
3 
3 
3 
3 
3 
3 
3 
3 
3 
3 
3 
3 
3 
3 
3 
3 
3 
3 
3 
3 
3 
3 
3 
3 
3 
3 
3 
3 
3 
3 
3 
3 
3 
3 
3 
3 
3 
3 
3 
3 
3 
3 
3 
3 
3 
3 
3 
3 
3 
3 
3 
3 
3 
3 
3 
3 
3 
3 
3 
3 
3 
3 
3 
3 
3 
3 
3 
3 
3 
3 
3 
3 
3 
3 
3 
3 
3 
3 
3 
3 
3 
3 
3 
3 
3 
3 
3 
3 
3 
3 
3 
3 
3 
3 
3 
3 
3 
3 
3 
3 
3 
3 
3 
3 
3 
3 
3 
3 
3 
3 
3 
3 
3 
3 
3 
3 
3 
3 
3 
3 
3 
3 
3 
3 
3 
3 
3 
3 
3 
3 
3 
3 
3 
3 
3 
3 
3 
3 
3 
3 
3 
3 
3 
3 
3 
3 
3 
3 
3 
3 
3 
3 
3 
3 
3 
3 
3 
3 
3 
3 
3 
3 
3 
3 
3 
3 
3 
3 
3 
3 
3 
3 
3 
3 
3 
3 
3 
3 
3 
3 
3 
3 
3 
3 
3 
3 
3 
3 
3 
3 
3 
3 
3 
3 
3 
3 
3 
3 
3 
3 
3 
3 
3 
3 
3 
3 
3 
3 
3 
3 
3 
3 
3 
3 
3 
3 
3 
3 
3 
3 
3 
3 
3 
3 
3 
3 
3 
3 
3 
3 
3 
3 
3 
3 
3 
3 
3 
3 
3 
3 
3 
3 
3 
3 
3 
3 
3 
3 
3 
3 
3 
3 
3 
3 
3 
3 
3 
3 
3 
3 
3 
3 
3 
3 
3 
3 
3 
3 
3 
3 
3 
3 
3 
3 
3 
3 
3 
3 
3 
3 
3 
3 
3 
3 
3 
3 
3 
3 
3 
3 
3 
3 
POINT_DATA 125
SCALARS GMDS_ID int 1
LOOKUP_TABLE default
0 1 2 3 4 5 6 7 8 9 10 11 12 13 14 15 16 17 18 19 20 21 22 23 24 25 26 27 28 29 30 31 32 33 34 35 36 37 38 39 40 41 42 43 44 45 46 47 48 49 50 51 52 53 54 55 56 57 58 59 60 61 62 63 64 65 66 67 68 69 70 71 72 73 74 75 76 77 78 79 80 81 82 83 84 85 86 87 88 89 90 91 92 93 94 95 96 97 98 99 100 101 102 103 104 105 106 107 108 109 110 111 112 113 114 115 116 117 118 119 120 121 122 123 124 
SCALARS geom_link_dim int 1
LOOKUP_TABLE default
1 1 1 1 1 1 1 1 2 2 2 2 2 2 3 3 2 2 2 2 3 3 2 2 2 3 0 3 3 0 3 2 3 2 2 3 3 0 3 2 2 3 2 3 0 3 3 2 2 3 0 3 3 0 0 3 3 0 3 2 3 2 3 2 3 0 3 2 3 0 3 2 3 0 2 3 2 3 0 3 3 0 0 3 2 3 3 0 3 2 2 3 0 3 3 0 3 0 2 3 0 3 3 0 3 2 3 0 0 3 0 0 0 3 2 3 3 0 2 3 3 3 2 0 3 
SCALARS geom_link_id int 1
LOOKUP_TABLE default
10 12 16 13 9 11 15 14 20 30 25 28 21 32 17 12 27 33 21 32 17 12 27 33 19 11 0 10 10 0 18 29 13 26 31 13 11 0 17 30 20 12 28 12 0 18 17 25 19 11 0 10 18 0 0 18 11 0 13 31 10 29 13 26 17 0 13 27 17 0 10 32 10 0 21 12 33 12 0 13 17 0 0 17 30 11 18 0 17 25 28 12 0 18 12 0 11 0 20 12 -1 18 18 -1 10 29 11 -1 -1 11 -1 -1 -1 11 19 10 18 -1 26 13 13 13 31 -1 10 


CELL_DATA 300
SCALARS GMDS_ID int 1
LOOKUP_TABLE default
0 1 2 3 4 5 6 7 8 9 10 11 12 13 14 15 16 17 18 19 20 21 22 23 25 27 28 29 31 33 34 35 36 37 38 39 40 41 42 44 45 46 47 48 49 50 51 52 54 55 56 60 62 64 66 67 68 69 70 72 74 75 76 77 78 79 81 83 84 85 86 87 88 89 90 92 94 95 96 97 98 99 100 101 102 103 104 105 106 107 108 109 111 113 114 115 116 117 118 119 120 121 122 123 124 125 126 127 128 129 130 131 132 133 134 135 136 137 138 139 140 141 142 143 144 145 146 147 148 149 150 151 152 153 154 155 156 157 158 159 161 162 163 164 165 166 167 168 170 171 172 173 174 175 176 177 178 179 180 181 182 183 184 185 186 187 188 189 190 191 192 193 194 195 196 197 198 199 201 202 203 204 205 206 207 208 209 210 211 213 215 216 217 218 219 220 221 222 223 224 225 226 227 228 229 230 231 232 233 234 235 236 237 238 239 240 241 242 243 244 245 246 247 248 249 250 251 252 253 254 255 256 257 258 259 260 261 262 263 264 265 266 267 268 269 270 271 272 273 274 275 276 277 278 279 280 281 282 283 284 285 286 287 288 289 290 291 292 293 294 295 296 297 298 299 300 301 302 303 304 305 306 307 308 309 310 311 312 313 314 315 316 317 318 319 320 321 322 323 324 

SCALARS geom_link_dim int 1
LOOKUP_TABLE default
2 0 0 0 0 2 0 2 0 0 2 0 0 0 0 0 0 0 0 2 2 0 0 2 0 0 0 0 0 2 0 2 0 0 0 0 0 0 0 0 0 2 0 2 0 0 2 0 0 0 0 0 0 0 0 0 0 0 0 0 0 2 0 0 0 0 0 2 2 0 0 2 2 0 0 0 2 2 0 0 0 0 0 0 0 2 0 2 0 0 2 2 0 0 0 0 0 0 0 0 0 0 0 0 0 0 0 0 0 0 0 0 0 0 2 2 0 0 0 0 0 0 0 0 2 2 0 0 0 0 0 0 0 2 2 0 0 0 0 0 0 0 0 0 2 2 2 0 0 0 0 0 0 0 0 2 2 0 0 0 0 0 2 2 0 0 0 0 0 0 0 0 0 0 0 0 0 0 0 0 0 0 0 0 0 0 2 2 0 0 0 0 2 2 0 0 0 0 0 0 0 0 0 0 0 0 0 0 0 0 0 0 0 0 0 0 0 0 0 0 0 0 2 2 0 0 0 0 0 0 0 0 0 0 0 0 0 0 0 0 0 0 0 0 0 0 0 0 0 0 0 0 0 0 0 2 2 0 0 0 0 0 0 0 0 0 0 0 0 2 2 0 0 0 0 0 0 0 0 0 0 0 0 2 2 0 0 0 0 0 0 0 0 0 0 0 0 0 0 0 

SCALARS geom_link_id int 1
LOOKUP_TABLE default
30 0 0 0 0 32 0 21 0 0 21 0 -1 -1 -1 0 -1 0 -1 19 30 0 0 32 0 0 0 -1 -1 27 0 33 0 0 0 0 0 0 -1 -1 0 27 0 33 0 0 29 0 -1 0 -1 0 0 0 -1 0 -1 0 0 0 0 19 0 0 0 0 0 30 30 0 0 20 20 0 0 0 28 28 0 0 0 0 0 0 0 27 0 27 0 0 25 25 0 0 0 0 0 0 0 0 0 0 0 0 0 0 0 0 0 0 0 0 0 0 31 31 0 0 0 0 0 0 0 0 29 29 -1 -1 0 0 0 0 0 26 26 0 0 0 0 0 0 0 0 0 32 32 29 -1 0 0 0 0 -1 0 0 21 21 0 0 -1 0 0 33 33 0 0 0 0 0 0 0 0 0 0 0 0 0 0 0 0 0 0 0 0 0 0 25 25 0 0 0 0 28 28 0 0 0 0 0 0 0 0 0 0 0 0 0 0 0 0 0 0 0 0 0 0 0 0 0 0 0 0 20 20 0 0 0 0 0 0 -1 -1 -1 -1 -1 -1 -1 -1 -1 -1 -1 -1 -1 -1 -1 -1 -1 -1 -1 -1 -1 -1 -1 -1 -1 19 19 -1 -1 -1 -1 -1 -1 -1 -1 -1 -1 -1 -1 26 26 -1 -1 -1 -1 -1 -1 -1 -1 -1 -1 -1 -1 31 31 -1 -1 -1 -1 -1 -1 -1 -1 -1 -1 -1 -1 -1 -1 -1 

