# vtk DataFile Version 3.0
Generated by GMDS VTK Writer

ASCII
DATASET UNSTRUCTURED_GRID
POINTS 36 float
0 0 0
0 10 0
10 10 0
10 0 0
0 0 10
0 10 10
10 10 10
10 0 10
6 0 0
6 10 0
6 10 10
6 0 10
0 0 8
0 10 8
6 10 8
6 0 8
10 10 8
10 0 8
0 0 6
0 10 6
6 10 6
6 0 6
10 10 6
10 0 6
0 6 0
6 6 0
6 6 6
0 6 6
0 6 8
6 6 8
6 6 10
0 6 10
10 6 8
10 6 10
10 6 0
10 6 6

CELLS 75 225
2 21 26
2 8 25
2 13 5
2 12 4
2 1 19
2 9 20
2 18 12
2 0 18
2 0 8
2 8 3
2 1 9
2 9 2
2 5 10
2 10 6
2 4 11
2 11 7
2 20 14
2 19 13
2 26 20
2 14 10
2 25 9
2 15 11
2 13 14
2 12 15
2 24 1
2 16 6
2 0 24
2 17 7
2 16 14
2 17 15
2 8 21
2 21 15
2 19 20
2 18 21
2 2 22
2 22 16
2 3 23
2 23 17
2 22 20
2 23 21
2 18 27
2 27 19
2 24 25
2 25 26
2 27 26
2 24 27
2 12 28
2 28 13
2 15 29
2 29 14
2 11 30
2 30 10
2 4 31
2 31 5
2 28 29
2 30 29
2 31 30
2 31 28
2 17 32
2 32 16
2 7 33
2 33 6
2 29 32
2 33 30
2 33 32
2 29 26
2 28 27
2 3 34
2 34 2
2 23 35
2 35 22
2 34 25
2 26 35
2 34 35
2 32 35

CELL_TYPES 75
3 
3 
3 
3 
3 
3 
3 
3 
3 
3 
3 
3 
3 
3 
3 
3 
3 
3 
3 
3 
3 
3 
3 
3 
3 
3 
3 
3 
3 
3 
3 
3 
3 
3 
3 
3 
3 
3 
3 
3 
3 
3 
3 
3 
3 
3 
3 
3 
3 
3 
3 
3 
3 
3 
3 
3 
3 
3 
3 
3 
3 
3 
3 
3 
3 
3 
3 
3 
3 
3 
3 
3 
3 
3 
3 
POINT_DATA 36
SCALARS GMDS_ID int 1
LOOKUP_TABLE default
0 1 2 3 4 5 6 7 8 9 10 11 12 13 14 15 16 17 18 19 20 21 22 23 24 25 26 27 28 29 30 31 32 33 34 35 
SCALARS geom_link_dim int 1
LOOKUP_TABLE default
1 1 1 1 1 1 1 1 2 2 2 2 2 2 3 3 2 2 2 2 3 3 2 2 2 3 0 3 3 0 3 2 3 2 2 3 
SCALARS geom_link_id int 1
LOOKUP_TABLE default
10 12 16 13 9 11 15 14 20 30 25 28 21 32 17 12 27 33 21 32 17 12 27 33 19 11 -1 10 10 -1 18 29 13 26 31 13 


CELL_DATA 75
SCALARS GMDS_ID int 1
LOOKUP_TABLE default
1 3 5 7 8 9 10 11 12 13 14 15 16 17 18 19 21 23 24 25 26 27 29 31 32 33 34 35 36 38 39 40 42 44 45 46 47 48 49 51 52 53 54 55 56 57 58 59 60 61 62 63 64 65 66 67 68 69 70 71 72 73 74 75 76 77 78 79 80 81 82 83 84 85 86 

SCALARS geom_link_dim int 1
LOOKUP_TABLE default
0 0 2 2 2 0 2 2 2 2 2 2 2 2 2 2 0 2 0 0 0 0 0 0 2 2 2 2 0 0 0 0 0 0 2 2 2 2 0 0 0 0 0 0 0 0 0 0 0 0 0 0 2 2 0 0 0 0 0 0 2 2 0 0 0 0 0 2 2 0 0 0 0 0 0 

SCALARS geom_link_id int 1
LOOKUP_TABLE default
-1 -1 32 21 32 0 21 21 20 20 30 30 25 25 28 28 0 32 -1 0 -1 0 0 0 19 27 19 33 0 0 0 0 0 0 27 27 33 33 0 0 -1 -1 -1 -1 -1 -1 -1 -1 -1 -1 -1 -1 29 29 -1 -1 -1 -1 -1 -1 26 26 -1 -1 -1 -1 -1 31 31 -1 -1 -1 -1 -1 -1 

