# vtk DataFile Version 3.0
Generated by GMDS VTK Writer

ASCII
DATASET UNSTRUCTURED_GRID
POINTS 100 float
0 0 0
0 10 0
10 10 0
10 0 0
0 0 10
0 10 10
10 10 10
10 0 10
0 1 0
0 1 10
10 1 10
10 1 0
0 6 0
0 6 10
10 6 10
10 6 0
6 6 0
6 6 10
6 10 10
6 10 0
6 1 0
6 1 10
6 0 0
6 0 10
0 10 1
0 6 1
6 6 1
6 10 1
10 6 1
10 10 1
0 1 1
6 1 1
10 1 1
0 0 1
6 0 1
10 0 1
0 10 8
0 6 8
6 6 8
6 10 8
10 6 8
10 10 8
0 1 8
6 1 8
10 1 8
0 0 8
6 0 8
10 0 8
8 6 0
8 10 0
8 10 1
8 6 1
8 6 8
8 10 8
8 10 10
8 6 10
8 1 0
8 1 1
8 0 0
8 0 1
8 1 8
8 1 10
8 0 8
8 0 10
1 6 1
1 1 1
1 1 8
1 6 8
1 10 0
1 6 0
1 10 1
1 10 8
1 6 10
1 10 10
1 1 0
1 0 0
1 0 1
1 1 10
1 0 8
1 0 10
8 8 10
8 8 8
10 8 8
10 8 10
1 8 10
1 8 8
6 8 8
6 8 10
0 8 10
0 8 8
1 8 0
1 8 1
6 8 1
6 8 0
0 8 0
0 8 1
8 8 0
8 8 1
10 8 1
10 8 0

CELLS 235 705
2 12 25
2 9 13
2 8 12
2 1 24
2 39 18
2 24 36
2 25 37
2 38 17
2 0 8
2 83 82
2 4 9
2 40 82
2 7 10
2 68 19
2 3 11
2 64 26
2 52 81
2 19 27
2 26 38
2 16 26
2 10 14
2 11 15
2 49 50
2 37 13
2 48 51
2 81 53
2 1 68
2 55 80
2 25 64
2 36 5
2 83 80
2 30 65
2 82 41
2 67 38
2 72 84
2 21 17
2 20 16
2 81 80
2 65 31
2 14 83
2 37 67
2 27 39
2 23 21
2 22 20
2 67 85
2 80 54
2 15 28
2 51 28
2 2 29
2 26 51
2 64 67
2 67 66
2 8 30
2 27 50
2 20 31
2 50 29
2 30 25
2 26 31
2 85 71
2 11 32
2 49 2
2 32 28
2 64 65
2 0 33
2 16 48
2 22 34
2 48 15
2 33 30
2 31 34
2 82 81
2 3 35
2 19 49
2 35 32
2 42 66
2 28 40
2 40 14
2 29 41
2 41 6
2 69 16
2 12 69
2 30 42
2 42 9
2 31 43
2 43 21
2 37 42
2 38 43
2 84 73
2 32 44
2 44 10
2 40 44
2 65 66
2 33 45
2 45 4
2 34 46
2 46 23
2 42 45
2 43 46
2 83 6
2 35 47
2 47 7
2 44 47
2 66 43
2 38 52
2 52 40
2 39 53
2 53 41
2 18 54
2 54 6
2 17 55
2 55 14
2 54 53
2 55 52
2 50 53
2 51 52
2 20 56
2 56 11
2 31 57
2 57 32
2 48 56
2 56 57
2 51 57
2 22 58
2 58 3
2 34 59
2 59 35
2 56 58
2 58 59
2 57 59
2 43 60
2 60 44
2 57 60
2 52 60
2 21 61
2 61 10
2 61 60
2 55 61
2 46 62
2 62 47
2 59 62
2 60 62
2 23 63
2 63 7
2 63 62
2 61 63
2 24 70
2 70 27
2 69 64
2 68 70
2 36 71
2 71 39
2 13 72
2 72 17
2 5 73
2 73 18
2 72 67
2 73 71
2 70 71
2 8 74
2 74 20
2 74 69
2 74 65
2 0 75
2 75 22
2 33 76
2 76 34
2 75 74
2 65 76
2 75 76
2 9 77
2 77 21
2 77 66
2 77 72
2 45 78
2 78 46
2 76 78
2 66 78
2 4 79
2 79 23
2 79 78
2 79 77
2 38 86
2 86 39
2 17 87
2 87 18
2 85 84
2 86 85
2 87 86
2 87 84
2 13 88
2 88 5
2 37 89
2 89 36
2 88 89
2 89 85
2 88 84
2 86 81
2 87 80
2 69 90
2 90 68
2 64 91
2 91 70
2 26 92
2 92 27
2 16 93
2 93 19
2 91 90
2 92 91
2 93 92
2 93 90
2 12 94
2 94 1
2 25 95
2 95 24
2 94 95
2 95 91
2 94 90
2 48 96
2 96 49
2 51 97
2 97 50
2 28 98
2 98 29
2 15 99
2 99 2
2 96 97
2 98 97
2 99 98
2 99 96
2 92 97
2 93 96
2 91 85
2 92 86
2 95 89
2 97 81
2 98 82

CELL_TYPES 235
3 
3 
3 
3 
3 
3 
3 
3 
3 
3 
3 
3 
3 
3 
3 
3 
3 
3 
3 
3 
3 
3 
3 
3 
3 
3 
3 
3 
3 
3 
3 
3 
3 
3 
3 
3 
3 
3 
3 
3 
3 
3 
3 
3 
3 
3 
3 
3 
3 
3 
3 
3 
3 
3 
3 
3 
3 
3 
3 
3 
3 
3 
3 
3 
3 
3 
3 
3 
3 
3 
3 
3 
3 
3 
3 
3 
3 
3 
3 
3 
3 
3 
3 
3 
3 
3 
3 
3 
3 
3 
3 
3 
3 
3 
3 
3 
3 
3 
3 
3 
3 
3 
3 
3 
3 
3 
3 
3 
3 
3 
3 
3 
3 
3 
3 
3 
3 
3 
3 
3 
3 
3 
3 
3 
3 
3 
3 
3 
3 
3 
3 
3 
3 
3 
3 
3 
3 
3 
3 
3 
3 
3 
3 
3 
3 
3 
3 
3 
3 
3 
3 
3 
3 
3 
3 
3 
3 
3 
3 
3 
3 
3 
3 
3 
3 
3 
3 
3 
3 
3 
3 
3 
3 
3 
3 
3 
3 
3 
3 
3 
3 
3 
3 
3 
3 
3 
3 
3 
3 
3 
3 
3 
3 
3 
3 
3 
3 
3 
3 
3 
3 
3 
3 
3 
3 
3 
3 
3 
3 
3 
3 
3 
3 
3 
3 
3 
3 
3 
3 
3 
3 
3 
3 
3 
3 
3 
3 
3 
3 
3 
3 
3 
3 
3 
3 
POINT_DATA 100
SCALARS GMDS_ID int 1
LOOKUP_TABLE default
0 1 2 3 4 5 6 7 8 9 10 11 12 13 14 15 16 17 18 19 20 21 22 23 24 25 26 27 28 29 30 31 32 33 34 35 36 37 38 39 40 41 42 43 44 45 46 47 48 49 50 51 52 53 54 55 56 57 58 59 60 61 62 63 64 65 66 67 68 69 70 71 72 73 74 75 76 77 78 79 80 81 82 83 84 85 86 87 88 89 90 91 92 93 94 95 96 97 98 99 
SCALARS geom_link_dim int 1
LOOKUP_TABLE default
1 1 1 1 1 1 1 1 2 2 2 2 2 2 2 2 3 3 2 2 3 3 2 2 2 3 0 3 3 2 3 0 3 2 3 2 2 3 0 3 3 2 3 0 3 2 3 2 3 2 3 0 0 3 2 3 3 0 2 3 0 3 3 2 0 0 0 0 2 3 3 3 3 2 3 2 3 3 3 2 3 0 3 2 3 0 0 3 2 3 3 0 0 3 2 3 3 0 3 2 
SCALARS geom_link_id int 1
LOOKUP_TABLE default
10 12 16 13 9 11 15 14 19 29 26 31 19 29 26 31 11 18 25 30 11 18 20 28 32 10 0 17 13 27 10 0 13 21 12 33 32 10 0 17 13 27 10 0 13 21 12 33 11 30 17 0 0 17 25 18 11 0 20 12 0 18 12 28 0 0 0 0 30 11 17 17 18 25 11 20 12 18 12 28 18 -1 13 26 18 -1 -1 18 29 10 11 -1 -1 11 19 10 11 -1 13 31 


CELL_DATA 235
SCALARS GMDS_ID int 1
LOOKUP_TABLE default
1 2 6 7 8 9 10 11 12 13 14 15 16 17 18 19 20 21 22 23 24 26 29 30 31 32 33 34 35 38 40 41 42 43 44 45 46 47 48 49 50 51 52 53 55 57 58 59 60 61 62 64 65 66 67 68 69 70 71 72 73 74 75 76 77 78 79 80 81 82 83 84 85 86 87 88 89 90 91 93 94 95 96 97 98 99 100 101 102 103 104 105 106 107 108 109 110 111 112 113 114 115 116 117 118 119 120 121 122 123 125 127 128 129 130 131 132 133 134 135 136 137 138 139 140 141 142 143 144 145 146 147 148 149 150 151 152 153 154 155 156 157 158 159 160 161 163 165 166 167 168 169 170 171 173 175 176 177 178 179 180 181 182 183 184 185 186 187 188 189 190 191 192 193 194 195 196 197 198 199 200 201 202 203 204 205 206 207 208 209 210 211 212 213 214 215 216 217 218 219 220 221 222 223 224 225 226 227 228 229 230 231 232 233 234 235 236 237 238 239 240 241 242 243 244 245 246 247 248 249 250 251 252 253 254 

SCALARS geom_link_dim int 1
LOOKUP_TABLE default
0 2 2 2 0 2 0 0 2 0 2 0 2 2 2 0 0 0 0 0 2 2 0 0 0 0 2 0 0 2 0 0 0 0 0 0 0 0 0 2 0 0 0 0 0 0 0 0 2 0 0 0 0 0 0 0 0 0 0 0 2 0 0 2 0 0 0 0 0 0 2 2 0 0 0 0 2 2 0 0 0 0 0 0 0 0 0 0 0 0 0 2 2 0 0 0 0 2 2 2 0 0 0 0 0 0 2 2 0 0 0 0 0 0 0 0 0 0 0 0 0 2 2 0 0 0 0 0 0 0 0 0 0 0 0 0 0 0 0 0 2 2 0 0 0 0 0 0 0 0 0 0 2 2 0 0 0 0 0 0 0 2 2 0 0 0 0 0 0 0 0 0 0 0 0 0 2 2 0 0 0 0 0 0 0 0 0 0 2 2 0 0 0 0 0 0 0 0 0 0 0 0 0 0 0 0 0 0 0 2 2 0 0 0 0 0 0 0 0 0 0 0 2 2 0 0 0 0 0 0 0 0 0 0 0 

SCALARS geom_link_id int 1
LOOKUP_TABLE default
0 29 19 32 0 32 0 0 19 -1 29 -1 26 30 31 0 -1 0 0 0 26 31 0 0 0 -1 30 -1 0 32 -1 0 -1 0 -1 0 0 -1 0 26 0 0 0 0 -1 -1 0 0 27 0 0 0 0 0 0 0 0 0 -1 0 30 0 0 21 0 0 0 0 0 -1 33 30 0 0 0 0 27 27 0 0 0 0 0 0 0 0 -1 0 0 0 0 21 21 0 0 0 0 26 33 33 0 0 0 0 0 0 25 25 0 0 0 0 0 0 0 0 0 0 0 0 0 20 20 0 0 0 0 0 0 0 0 0 0 0 0 0 0 0 0 0 28 28 0 0 0 0 0 0 0 0 0 0 25 25 0 0 0 0 0 0 0 20 20 0 0 0 0 0 0 0 0 0 0 0 0 0 28 28 0 0 -1 -1 -1 -1 -1 -1 -1 -1 29 29 -1 -1 -1 -1 -1 -1 -1 -1 -1 -1 -1 -1 -1 -1 -1 -1 -1 -1 -1 19 19 -1 -1 -1 -1 -1 -1 -1 -1 -1 -1 -1 31 31 -1 -1 -1 -1 -1 -1 -1 -1 -1 -1 -1 

