# vtk DataFile Version 3.0
Generated by GMDS VTK Writer

ASCII
DATASET UNSTRUCTURED_GRID
POINTS 48 float
0 0 0
0 10 0
10 10 0
10 0 0
0 0 10
0 10 10
10 10 10
10 0 10
0 1 0
0 1 10
10 1 10
10 1 0
0 6 0
0 6 10
10 6 10
10 6 0
6 6 0
6 6 10
6 10 10
6 10 0
6 1 0
6 1 10
6 0 0
6 0 10
0 10 1
0 6 1
6 6 1
6 10 1
10 6 1
10 10 1
0 1 1
6 1 1
10 1 1
0 0 1
6 0 1
10 0 1
0 10 8
0 6 8
6 6 8
6 10 8
10 6 8
10 10 8
0 1 8
6 1 8
10 1 8
0 0 8
6 0 8
10 0 8

CELLS 104 312
2 13 5
2 12 25
2 9 13
2 12 1
2 8 12
2 1 24
2 39 18
2 24 36
2 25 37
2 38 17
2 0 8
2 12 16
2 4 9
2 13 17
2 7 10
2 17 14
2 3 11
2 16 15
2 36 39
2 19 27
2 26 38
2 16 26
2 10 14
2 14 6
2 11 15
2 15 2
2 38 39
2 37 13
2 5 18
2 18 6
2 1 19
2 19 2
2 36 37
2 18 17
2 36 5
2 19 16
2 8 20
2 20 11
2 9 21
2 21 10
2 37 38
2 21 17
2 20 16
2 0 22
2 22 3
2 4 23
2 23 7
2 27 39
2 23 21
2 22 20
2 24 25
2 25 26
2 26 27
2 24 27
2 15 28
2 2 29
2 28 26
2 29 28
2 29 27
2 8 30
2 20 31
2 30 25
2 26 31
2 30 31
2 11 32
2 32 28
2 32 31
2 0 33
2 22 34
2 33 30
2 31 34
2 33 34
2 3 35
2 35 32
2 35 34
2 28 40
2 40 14
2 29 41
2 41 6
2 38 40
2 40 41
2 39 41
2 30 42
2 42 9
2 31 43
2 43 21
2 37 42
2 38 43
2 42 43
2 32 44
2 44 10
2 40 44
2 43 44
2 33 45
2 45 4
2 34 46
2 46 23
2 42 45
2 43 46
2 45 46
2 35 47
2 47 7
2 44 47
2 46 47

CELL_TYPES 104
3 
3 
3 
3 
3 
3 
3 
3 
3 
3 
3 
3 
3 
3 
3 
3 
3 
3 
3 
3 
3 
3 
3 
3 
3 
3 
3 
3 
3 
3 
3 
3 
3 
3 
3 
3 
3 
3 
3 
3 
3 
3 
3 
3 
3 
3 
3 
3 
3 
3 
3 
3 
3 
3 
3 
3 
3 
3 
3 
3 
3 
3 
3 
3 
3 
3 
3 
3 
3 
3 
3 
3 
3 
3 
3 
3 
3 
3 
3 
3 
3 
3 
3 
3 
3 
3 
3 
3 
3 
3 
3 
3 
3 
3 
3 
3 
3 
3 
3 
3 
3 
3 
3 
3 
POINT_DATA 48
SCALARS GMDS_ID int 1
LOOKUP_TABLE default
0 1 2 3 4 5 6 7 8 9 10 11 12 13 14 15 16 17 18 19 20 21 22 23 24 25 26 27 28 29 30 31 32 33 34 35 36 37 38 39 40 41 42 43 44 45 46 47 
SCALARS geom_link_dim int 1
LOOKUP_TABLE default
1 1 1 1 1 1 1 1 2 2 2 2 2 2 2 2 3 3 2 2 3 3 2 2 2 3 0 3 3 2 3 0 3 2 3 2 2 3 0 3 3 2 3 0 3 2 3 2 
SCALARS geom_link_id int 1
LOOKUP_TABLE default
10 12 16 13 9 11 15 14 19 29 26 31 19 29 26 31 11 18 25 30 11 18 20 28 32 10 0 17 13 27 10 0 13 21 12 33 32 10 -1 17 13 27 10 -1 13 21 12 33 


CELL_DATA 104
SCALARS GMDS_ID int 1
LOOKUP_TABLE default
0 1 2 4 6 7 8 9 10 11 12 13 14 15 16 17 18 19 20 21 22 23 24 25 26 27 28 30 32 33 34 35 36 37 38 39 40 41 42 43 44 45 46 47 48 49 50 51 52 53 54 55 56 57 58 60 62 63 64 65 67 69 70 71 72 74 75 76 78 80 81 82 83 85 86 87 88 89 90 91 92 93 94 95 96 97 98 99 100 101 102 103 104 105 106 107 108 109 110 111 112 113 114 115 

SCALARS geom_link_dim int 1
LOOKUP_TABLE default
2 0 2 2 2 2 0 2 0 0 2 0 2 0 2 0 2 0 0 0 0 0 2 2 2 2 0 0 2 2 2 2 0 0 2 0 0 0 0 0 0 0 0 2 2 2 2 0 0 0 0 0 0 0 0 2 0 0 0 0 0 0 0 0 0 0 0 2 0 0 0 0 2 0 0 0 0 2 2 0 0 0 0 0 0 0 0 0 0 0 0 0 0 2 2 0 0 0 0 0 2 2 0 0 

SCALARS geom_link_id int 1
LOOKUP_TABLE default
29 0 29 19 19 32 -1 32 -1 -1 19 0 29 0 26 0 31 0 -1 0 -1 0 26 26 31 31 -1 -1 25 25 30 30 -1 0 32 0 0 0 0 0 -1 0 0 20 20 28 28 -1 0 0 0 0 0 0 0 27 0 0 0 0 0 0 0 0 0 0 0 21 0 0 0 0 33 0 0 -1 -1 27 27 -1 -1 -1 -1 -1 -1 -1 -1 -1 -1 -1 -1 -1 -1 21 21 -1 -1 -1 -1 -1 33 33 -1 -1 

