# vtk DataFile Version 3.0
Generated by GMDS VTK Writer

ASCII
DATASET UNSTRUCTURED_GRID
POINTS 48 float
0 0 0
0 10 0
10 10 0
10 0 0
0 0 10
0 10 10
10 10 10
10 0 10
6 0 0
6 10 0
6 10 10
6 0 10
0 0 8
0 10 8
6 10 8
6 0 8
10 10 8
10 0 8
0 0 6
0 10 6
6 10 6
6 0 6
10 10 6
10 0 6
0 6 0
6 6 0
6 6 6
0 6 6
0 6 8
6 6 8
6 6 10
0 6 10
10 6 8
10 6 10
10 6 0
10 6 6
8 6 0
8 6 6
8 10 6
8 10 0
8 0 0
8 0 6
8 0 10
8 0 8
8 6 8
8 6 10
8 10 8
8 10 10

CELLS 104 312
2 9 39
2 21 26
2 20 38
2 8 25
2 25 36
2 13 5
2 26 37
2 12 4
2 1 19
2 9 20
2 18 12
2 0 18
2 0 8
2 1 9
2 5 10
2 4 11
2 39 2
2 20 14
2 36 34
2 19 13
2 26 20
2 14 10
2 25 9
2 15 11
2 36 37
2 13 14
2 38 37
2 12 15
2 24 1
2 16 6
2 0 24
2 17 7
2 37 35
2 8 21
2 21 15
2 39 38
2 19 20
2 39 36
2 18 21
2 2 22
2 22 16
2 3 23
2 23 17
2 38 22
2 18 27
2 27 19
2 24 25
2 25 26
2 27 26
2 24 27
2 12 28
2 28 13
2 15 29
2 29 14
2 11 30
2 30 10
2 4 31
2 31 5
2 28 29
2 30 29
2 31 30
2 31 28
2 17 32
2 32 16
2 7 33
2 33 6
2 33 32
2 29 26
2 28 27
2 3 34
2 34 2
2 23 35
2 35 22
2 34 35
2 32 35
2 8 40
2 40 3
2 21 41
2 41 23
2 40 41
2 41 37
2 40 36
2 11 42
2 42 7
2 15 43
2 43 17
2 29 44
2 44 32
2 30 45
2 45 33
2 42 43
2 43 44
2 44 45
2 42 45
2 14 46
2 46 16
2 10 47
2 47 6
2 46 44
2 47 46
2 47 45
2 43 41
2 37 44
2 46 38

CELL_TYPES 104
3 
3 
3 
3 
3 
3 
3 
3 
3 
3 
3 
3 
3 
3 
3 
3 
3 
3 
3 
3 
3 
3 
3 
3 
3 
3 
3 
3 
3 
3 
3 
3 
3 
3 
3 
3 
3 
3 
3 
3 
3 
3 
3 
3 
3 
3 
3 
3 
3 
3 
3 
3 
3 
3 
3 
3 
3 
3 
3 
3 
3 
3 
3 
3 
3 
3 
3 
3 
3 
3 
3 
3 
3 
3 
3 
3 
3 
3 
3 
3 
3 
3 
3 
3 
3 
3 
3 
3 
3 
3 
3 
3 
3 
3 
3 
3 
3 
3 
3 
3 
3 
3 
3 
3 
POINT_DATA 48
SCALARS GMDS_ID int 1
LOOKUP_TABLE default
0 1 2 3 4 5 6 7 8 9 10 11 12 13 14 15 16 17 18 19 20 21 22 23 24 25 26 27 28 29 30 31 32 33 34 35 36 37 38 39 40 41 42 43 44 45 46 47 
SCALARS geom_link_dim int 1
LOOKUP_TABLE default
1 1 1 1 1 1 1 1 2 2 2 2 2 2 3 3 2 2 2 2 3 3 2 2 2 3 0 3 3 0 3 2 3 2 2 3 3 0 3 2 2 3 2 3 0 3 3 2 
SCALARS geom_link_id int 1
LOOKUP_TABLE default
10 12 16 13 9 11 15 14 20 30 25 28 21 32 17 12 27 33 21 32 17 12 27 33 19 11 0 10 10 0 18 29 13 26 31 13 11 -1 17 30 20 12 28 12 -1 18 17 25 


CELL_DATA 104
SCALARS GMDS_ID int 1
LOOKUP_TABLE default
0 1 2 3 4 5 6 7 8 9 10 11 12 14 16 18 20 21 22 23 24 25 26 27 28 29 30 31 32 33 34 35 37 39 40 41 42 43 44 45 46 47 48 50 52 53 54 55 56 57 58 59 60 61 62 63 64 65 66 67 68 69 70 71 72 73 76 77 78 79 80 81 82 85 86 87 88 89 90 91 92 93 94 95 96 97 98 99 100 101 102 103 104 105 106 107 108 109 110 111 112 113 114 115 

SCALARS geom_link_dim int 1
LOOKUP_TABLE default
2 0 0 0 0 2 0 2 2 0 2 2 2 2 2 2 2 0 0 2 0 0 0 0 0 0 0 0 2 2 2 2 0 0 0 0 0 0 0 2 2 2 2 0 0 0 0 0 0 0 0 0 0 0 0 0 2 2 0 0 0 0 0 0 2 2 0 0 0 2 2 0 0 0 0 2 2 0 0 0 0 0 2 2 0 0 0 0 0 0 0 0 0 0 0 0 2 2 0 0 0 0 0 0 

SCALARS geom_link_id int 1
LOOKUP_TABLE default
30 0 -1 0 -1 32 -1 21 32 0 21 21 20 30 25 28 30 0 -1 32 0 0 0 0 -1 0 -1 0 19 27 19 33 -1 0 0 -1 0 -1 0 27 27 33 33 -1 0 0 0 0 0 0 0 0 0 0 0 0 29 29 0 0 0 0 0 0 26 26 0 0 0 31 31 0 0 0 0 20 20 -1 -1 -1 -1 -1 28 28 -1 -1 -1 -1 -1 -1 -1 -1 -1 -1 -1 -1 25 25 -1 -1 -1 -1 -1 -1 

