# vtk DataFile Version 3.0
Generated by GMDS VTK Writer

ASCII
DATASET UNSTRUCTURED_GRID
POINTS 216 float
0 0 0
0 10 0
10 10 0
10 0 0
0 0 10
0 10 10
10 10 10
10 0 10
0 1 0
0 1 10
10 1 10
10 1 0
0 6 0
0 6 10
10 6 10
10 6 0
6 6 0
6 6 10
6 10 10
6 10 0
6 1 0
6 1 10
6 0 0
6 0 10
0 10 1
0 6 1
6 6 1
6 10 1
10 6 1
10 10 1
0 1 1
6 1 1
10 1 1
0 0 1
6 0 1
10 0 1
0 10 8
0 6 8
6 6 8
6 10 8
10 6 8
10 10 8
0 1 8
6 1 8
10 1 8
0 0 8
6 0 8
10 0 8
8 6 0
8 10 0
8 10 1
8 6 1
8 6 8
8 10 8
8 10 10
8 6 10
8 1 0
8 1 1
8 0 0
8 0 1
8 1 8
8 1 10
8 0 8
8 0 10
1 6 1
1 1 1
1 1 8
1 6 8
1 10 0
1 6 0
1 10 1
1 10 8
1 6 10
1 10 10
1 1 0
1 0 0
1 0 1
1 1 10
1 0 8
1 0 10
8 8 10
8 8 8
10 8 8
10 8 10
1 8 10
1 8 8
6 8 8
6 8 10
0 8 10
0 8 8
1 8 0
1 8 1
6 8 1
6 8 0
0 8 0
0 8 1
8 8 0
8 8 1
10 8 1
10 8 0
1 6 6
1 1 6
6 1 6
6 6 6
0 6 6
0 1 6
8 1 6
8 6 6
10 1 6
10 6 6
6 0 6
8 0 6
10 0 6
0 0 6
1 0 6
1 8 6
6 8 6
1 10 6
6 10 6
0 8 6
0 10 6
8 8 6
10 8 6
8 10 6
10 10 6
8 4 10
8 4 8
10 4 8
10 4 10
1 4 10
1 4 8
6 4 8
6 4 10
0 4 10
0 4 8
10 4 6
8 4 6
10 4 1
8 4 1
6 4 6
6 4 1
1 4 0
1 4 1
6 4 0
0 4 6
1 4 6
0 4 1
0 4 0
8 4 0
10 4 0
10 4 4
8 4 4
8 1 4
10 1 4
10 6 4
8 6 4
6 1 4
6 0 4
8 0 4
10 0 4
0 1 4
0 0 4
1 0 4
1 1 4
6 6 4
1 6 4
1 8 4
6 8 4
1 10 4
6 10 4
0 6 4
0 8 4
0 10 4
8 8 4
10 8 4
8 10 4
10 10 4
6 4 4
1 4 4
0 4 4
4 1 4
4 0 4
4 0 6
4 1 6
4 1 1
4 0 1
4 8 8
4 8 10
4 10 10
4 10 8
4 6 8
4 6 10
4 0 0
4 1 0
4 1 8
4 0 8
4 0 10
4 1 10
4 6 1
4 6 0
4 8 0
4 8 1
4 10 0
4 10 1
4 4 8
4 4 10
4 6 6
4 8 6
4 10 6
4 4 0
4 4 1
4 4 6
4 8 4
4 6 4
4 10 4
4 4 4

CELLS 540 1620
2 184 185
2 12 25
2 137 150
2 184 180
2 101 66
2 188 187
2 154 150
2 1 24
2 39 18
2 125 61
2 126 60
2 38 17
2 0 8
2 83 82
2 4 9
2 40 82
2 7 10
2 3 11
2 52 81
2 19 27
2 13 133
2 16 26
2 57 152
2 34 157
2 153 152
2 103 38
2 85 186
2 49 50
2 37 13
2 48 51
2 81 53
2 1 68
2 55 80
2 25 64
2 100 67
2 104 37
2 36 5
2 102 43
2 83 80
2 30 65
2 82 41
2 72 84
2 152 106
2 154 155
2 81 80
2 14 83
2 37 67
2 67 130
2 23 21
2 22 20
2 189 188
2 67 85
2 105 101
2 80 54
2 15 28
2 51 28
2 2 29
2 26 51
2 157 110
2 138 151
2 8 30
2 27 50
2 20 31
2 50 29
2 156 102
2 59 158
2 85 71
2 11 32
2 49 2
2 28 154
2 158 111
2 0 33
2 16 48
2 22 34
2 48 15
2 33 30
2 31 34
2 82 81
2 3 35
2 19 49
2 35 32
2 42 66
2 72 129
2 40 14
2 128 125
2 41 6
2 12 69
2 40 127
2 42 9
2 132 131
2 43 21
2 150 135
2 153 108
2 84 73
2 128 127
2 44 10
2 152 151
2 127 44
2 45 4
2 128 10
2 46 23
2 42 45
2 43 46
2 83 6
2 127 126
2 47 7
2 44 47
2 38 52
2 52 40
2 39 53
2 53 41
2 18 54
2 54 6
2 17 55
2 55 14
2 105 42
2 54 53
2 55 52
2 130 66
2 130 129
2 20 56
2 56 11
2 31 57
2 57 32
2 155 107
2 56 57
2 51 155
2 22 58
2 58 3
2 34 59
2 59 35
2 56 58
2 58 59
2 57 59
2 43 60
2 60 44
2 132 21
2 150 151
2 21 61
2 61 10
2 61 60
2 32 153
2 46 62
2 62 47
2 126 125
2 60 62
2 23 63
2 63 7
2 63 62
2 61 63
2 24 70
2 71 189
2 69 64
2 155 151
2 68 70
2 36 71
2 13 72
2 5 73
2 104 100
2 72 67
2 184 31
2 73 71
2 55 125
2 8 74
2 31 156
2 74 65
2 0 75
2 33 76
2 75 74
2 65 76
2 75 76
2 9 77
2 77 66
2 151 136
2 45 78
2 14 128
2 66 78
2 4 79
2 79 78
2 79 77
2 38 86
2 86 39
2 17 87
2 87 18
2 85 84
2 87 86
2 13 88
2 88 5
2 37 89
2 89 36
2 88 89
2 89 85
2 88 84
2 86 81
2 87 80
2 69 90
2 90 68
2 64 91
2 91 70
2 26 92
2 92 27
2 16 93
2 93 19
2 91 90
2 93 92
2 12 94
2 94 1
2 25 95
2 95 24
2 94 95
2 95 91
2 94 90
2 48 96
2 96 49
2 51 97
2 97 50
2 28 98
2 98 29
2 15 99
2 99 2
2 96 97
2 98 97
2 99 98
2 99 96
2 92 97
2 93 96
2 131 43
2 17 132
2 52 126
2 38 131
2 129 77
2 106 60
2 185 181
2 107 52
2 102 106
2 154 109
2 103 107
2 162 181
2 108 44
2 182 110
2 109 40
2 108 106
2 153 150
2 109 107
2 188 18
2 110 46
2 163 180
2 111 62
2 102 110
2 110 111
2 106 111
2 180 156
2 112 47
2 112 111
2 108 112
2 189 39
2 113 45
2 187 186
2 114 78
2 105 113
2 113 114
2 101 114
2 185 34
2 115 85
2 76 185
2 116 86
2 100 115
2 103 116
2 183 182
2 117 71
2 182 181
2 118 39
2 117 115
2 118 116
2 65 184
2 119 89
2 115 119
2 104 119
2 183 180
2 120 36
2 120 117
2 120 119
2 183 102
2 121 81
2 101 183
2 122 82
2 107 121
2 121 122
2 109 122
2 181 180
2 123 53
2 114 182
2 124 41
2 123 121
2 124 123
2 124 122
2 116 121
2 118 123
2 133 9
2 37 134
2 134 42
2 133 134
2 134 130
2 133 129
2 131 126
2 132 125
2 109 135
2 135 108
2 107 136
2 136 106
2 136 135
2 126 136
2 127 135
2 28 137
2 137 32
2 51 138
2 138 57
2 137 138
2 186 86
2 181 157
2 103 139
2 139 102
2 139 136
2 131 139
2 26 140
2 140 31
2 140 138
2 84 187
2 69 141
2 141 74
2 64 142
2 142 65
2 16 143
2 143 20
2 142 141
2 143 140
2 104 144
2 144 105
2 100 145
2 145 101
2 145 144
2 130 145
2 134 144
2 25 146
2 146 30
2 146 142
2 73 188
2 187 87
2 12 147
2 147 8
2 147 146
2 147 141
2 48 148
2 148 56
2 15 149
2 149 11
2 148 138
2 149 137
2 149 148
2 143 148
2 156 157
2 157 158
2 152 158
2 156 152
2 35 159
2 159 112
2 159 158
2 153 159
2 30 160
2 160 105
2 33 161
2 161 113
2 76 162
2 162 114
2 65 163
2 163 101
2 160 161
2 161 162
2 163 162
2 160 163
2 26 164
2 164 103
2 64 165
2 165 100
2 91 166
2 166 115
2 92 167
2 167 116
2 165 166
2 164 167
2 70 168
2 168 117
2 27 169
2 169 118
2 168 166
2 169 167
2 25 170
2 170 104
2 95 171
2 171 119
2 170 165
2 166 171
2 170 171
2 24 172
2 172 120
2 172 168
2 172 171
2 97 173
2 173 121
2 98 174
2 174 122
2 155 173
2 173 174
2 154 174
2 50 175
2 175 123
2 29 176
2 176 124
2 175 173
2 176 175
2 176 174
2 164 155
2 167 173
2 169 175
2 140 177
2 177 139
2 151 177
2 164 177
2 156 177
2 142 178
2 178 145
2 165 178
2 163 178
2 146 179
2 179 144
2 178 179
2 170 179
2 160 179
2 189 186
2 67 190
2 190 38
2 72 191
2 191 17
2 190 191
2 191 187
2 190 186
2 75 192
2 192 22
2 74 193
2 193 20
2 193 192
2 184 193
2 192 185
2 66 194
2 194 43
2 78 195
2 195 46
2 79 196
2 196 23
2 77 197
2 197 21
2 194 195
2 195 196
2 197 196
2 194 197
2 64 198
2 198 26
2 69 199
2 199 16
2 90 200
2 200 93
2 91 201
2 201 92
2 198 199
2 199 200
2 200 201
2 198 201
2 68 202
2 202 19
2 70 203
2 203 27
2 202 200
2 202 203
2 203 201
2 130 204
2 204 131
2 129 205
2 205 132
2 205 204
2 197 205
2 194 204
2 191 205
2 190 204
2 195 182
2 194 183
2 100 206
2 206 103
2 115 207
2 207 116
2 206 207
2 186 207
2 190 206
2 117 208
2 208 118
2 207 208
2 189 208
2 141 209
2 209 143
2 142 210
2 210 140
2 199 209
2 209 210
2 198 210
2 193 209
2 184 210
2 145 211
2 211 139
2 206 211
2 204 211
2 183 211
2 166 212
2 212 167
2 165 213
2 213 164
2 201 212
2 213 212
2 198 213
2 207 212
2 206 213
2 168 214
2 214 169
2 212 214
2 203 214
2 208 214
2 178 215
2 215 177
2 210 215
2 213 215
2 211 215
2 180 215

CELL_TYPES 540
3 
3 
3 
3 
3 
3 
3 
3 
3 
3 
3 
3 
3 
3 
3 
3 
3 
3 
3 
3 
3 
3 
3 
3 
3 
3 
3 
3 
3 
3 
3 
3 
3 
3 
3 
3 
3 
3 
3 
3 
3 
3 
3 
3 
3 
3 
3 
3 
3 
3 
3 
3 
3 
3 
3 
3 
3 
3 
3 
3 
3 
3 
3 
3 
3 
3 
3 
3 
3 
3 
3 
3 
3 
3 
3 
3 
3 
3 
3 
3 
3 
3 
3 
3 
3 
3 
3 
3 
3 
3 
3 
3 
3 
3 
3 
3 
3 
3 
3 
3 
3 
3 
3 
3 
3 
3 
3 
3 
3 
3 
3 
3 
3 
3 
3 
3 
3 
3 
3 
3 
3 
3 
3 
3 
3 
3 
3 
3 
3 
3 
3 
3 
3 
3 
3 
3 
3 
3 
3 
3 
3 
3 
3 
3 
3 
3 
3 
3 
3 
3 
3 
3 
3 
3 
3 
3 
3 
3 
3 
3 
3 
3 
3 
3 
3 
3 
3 
3 
3 
3 
3 
3 
3 
3 
3 
3 
3 
3 
3 
3 
3 
3 
3 
3 
3 
3 
3 
3 
3 
3 
3 
3 
3 
3 
3 
3 
3 
3 
3 
3 
3 
3 
3 
3 
3 
3 
3 
3 
3 
3 
3 
3 
3 
3 
3 
3 
3 
3 
3 
3 
3 
3 
3 
3 
3 
3 
3 
3 
3 
3 
3 
3 
3 
3 
3 
3 
3 
3 
3 
3 
3 
3 
3 
3 
3 
3 
3 
3 
3 
3 
3 
3 
3 
3 
3 
3 
3 
3 
3 
3 
3 
3 
3 
3 
3 
3 
3 
3 
3 
3 
3 
3 
3 
3 
3 
3 
3 
3 
3 
3 
3 
3 
3 
3 
3 
3 
3 
3 
3 
3 
3 
3 
3 
3 
3 
3 
3 
3 
3 
3 
3 
3 
3 
3 
3 
3 
3 
3 
3 
3 
3 
3 
3 
3 
3 
3 
3 
3 
3 
3 
3 
3 
3 
3 
3 
3 
3 
3 
3 
3 
3 
3 
3 
3 
3 
3 
3 
3 
3 
3 
3 
3 
3 
3 
3 
3 
3 
3 
3 
3 
3 
3 
3 
3 
3 
3 
3 
3 
3 
3 
3 
3 
3 
3 
3 
3 
3 
3 
3 
3 
3 
3 
3 
3 
3 
3 
3 
3 
3 
3 
3 
3 
3 
3 
3 
3 
3 
3 
3 
3 
3 
3 
3 
3 
3 
3 
3 
3 
3 
3 
3 
3 
3 
3 
3 
3 
3 
3 
3 
3 
3 
3 
3 
3 
3 
3 
3 
3 
3 
3 
3 
3 
3 
3 
3 
3 
3 
3 
3 
3 
3 
3 
3 
3 
3 
3 
3 
3 
3 
3 
3 
3 
3 
3 
3 
3 
3 
3 
3 
3 
3 
3 
3 
3 
3 
3 
3 
3 
3 
3 
3 
3 
3 
3 
3 
3 
3 
3 
3 
3 
3 
3 
3 
3 
3 
3 
3 
3 
3 
3 
3 
3 
3 
3 
3 
3 
3 
3 
3 
3 
3 
3 
3 
3 
3 
3 
3 
3 
3 
3 
3 
3 
3 
3 
3 
3 
3 
3 
3 
3 
3 
3 
3 
3 
3 
3 
3 
3 
3 
3 
3 
3 
3 
3 
3 
3 
3 
3 
3 
3 
3 
3 
3 
3 
3 
3 
3 
3 
3 
3 
POINT_DATA 216
SCALARS GMDS_ID int 1
LOOKUP_TABLE default
0 1 2 3 4 5 6 7 8 9 10 11 12 13 14 15 16 17 18 19 20 21 22 23 24 25 26 27 28 29 30 31 32 33 34 35 36 37 38 39 40 41 42 43 44 45 46 47 48 49 50 51 52 53 54 55 56 57 58 59 60 61 62 63 64 65 66 67 68 69 70 71 72 73 74 75 76 77 78 79 80 81 82 83 84 85 86 87 88 89 90 91 92 93 94 95 96 97 98 99 100 101 102 103 104 105 106 107 108 109 110 111 112 113 114 115 116 117 118 119 120 121 122 123 124 125 126 127 128 129 130 131 132 133 134 135 136 137 138 139 140 141 142 143 144 145 146 147 148 149 150 151 152 153 154 155 156 157 158 159 160 161 162 163 164 165 166 167 168 169 170 171 172 173 174 175 176 177 178 179 180 181 182 183 184 185 186 187 188 189 190 191 192 193 194 195 196 197 198 199 200 201 202 203 204 205 206 207 208 209 210 211 212 213 214 215 
SCALARS geom_link_dim int 1
LOOKUP_TABLE default
1 1 1 1 1 1 1 1 2 2 2 2 2 2 2 2 3 3 2 2 3 3 2 2 2 3 0 3 3 2 3 0 3 2 3 2 2 3 1 3 3 2 3 0 3 2 3 2 3 2 3 0 1 3 2 3 3 0 2 3 0 3 3 2 0 1 0 0 2 3 3 3 3 2 3 2 3 3 3 2 3 1 3 2 3 0 1 3 2 3 3 0 0 3 2 3 3 0 3 2 0 0 0 1 3 3 0 1 3 3 3 3 2 2 3 0 1 3 3 3 2 1 3 3 2 3 0 3 2 3 0 0 3 2 3 3 0 3 0 0 0 3 1 3 3 0 3 2 3 2 3 0 0 3 3 0 0 3 3 2 3 2 3 1 0 0 0 0 3 3 3 3 2 0 3 3 2 0 1 3 1 3 3 0 1 3 0 3 2 3 0 3 2 3 0 3 2 3 0 3 3 0 2 3 0 3 0 0 3 3 1 0 0 0 3 1 
SCALARS geom_link_id int 1
LOOKUP_TABLE default
10 12 16 13 9 11 15 14 19 29 26 31 19 29 26 31 11 18 25 30 11 18 20 28 32 10 0 17 13 27 10 -1 13 21 12 33 32 10 1 17 13 27 10 0 13 21 12 33 11 30 17 0 5 17 25 18 11 0 20 12 0 18 12 28 0 18 0 0 30 11 17 17 18 25 11 20 12 18 12 28 18 7 13 26 18 0 3 18 29 10 11 0 0 11 19 10 11 0 13 31 0 0 0 2 10 10 0 6 13 13 12 12 33 21 12 0 4 17 17 10 32 8 13 17 27 18 0 13 26 18 0 0 18 29 10 13 0 13 0 0 -1 11 20 11 10 0 10 19 11 31 13 0 0 13 13 0 -1 12 12 33 10 21 12 17 0 0 0 0 17 17 10 10 32 0 13 17 27 -1 19 10 22 12 12 -1 21 12 -1 18 25 17 -1 18 20 11 -1 12 28 18 -1 11 11 -1 30 17 -1 18 -1 -1 17 11 24 -1 -1 -1 17 23 


CELL_DATA 540
SCALARS GMDS_ID int 1
LOOKUP_TABLE default
0 1 2 3 4 5 6 7 8 9 10 11 12 13 14 15 16 18 20 21 22 23 24 25 26 27 28 29 30 31 32 33 34 35 36 37 38 39 40 41 42 44 45 46 47 49 50 51 52 53 54 55 56 57 58 59 60 61 63 64 65 66 67 68 69 70 71 72 73 74 75 76 77 78 79 80 81 82 83 84 85 86 87 88 89 90 93 94 95 96 97 98 99 100 101 102 103 105 106 107 108 109 110 111 112 113 114 116 117 118 119 120 121 122 123 124 125 127 128 129 130 131 132 133 134 135 136 137 138 139 140 141 142 143 144 145 146 147 148 149 150 151 152 153 154 155 156 157 158 159 160 162 163 164 165 166 168 170 172 173 174 175 176 177 179 180 181 183 185 186 187 188 190 191 192 194 195 196 198 199 200 201 202 203 204 206 208 209 210 211 212 213 214 215 216 217 218 219 220 221 222 223 224 225 227 229 230 231 232 233 234 235 236 237 238 239 240 241 242 243 244 245 246 247 248 249 250 251 252 253 254 255 256 257 258 259 260 261 262 263 264 265 266 267 268 269 270 271 272 273 274 275 276 277 278 279 280 281 282 283 284 285 287 288 289 290 291 293 294 295 296 297 298 300 301 302 303 304 305 306 307 308 309 310 311 312 313 314 315 316 317 318 319 320 321 322 323 324 325 326 327 328 329 330 331 332 333 334 335 336 337 338 339 340 341 342 343 344 345 346 347 348 349 350 351 352 353 354 355 356 357 358 359 360 361 363 365 366 367 368 369 370 371 372 373 374 375 376 377 378 379 380 381 382 383 384 385 386 387 388 390 391 392 393 394 395 396 397 398 399 400 401 402 403 404 405 406 407 408 409 412 413 414 415 416 417 418 419 421 423 424 425 426 427 428 430 431 432 433 434 435 436 437 438 439 440 441 442 443 444 445 446 447 448 449 450 451 452 453 454 455 456 457 458 459 460 461 462 463 464 465 466 468 469 470 471 472 473 474 475 476 477 478 479 480 481 482 483 484 485 486 487 488 489 490 491 492 493 494 495 496 497 498 499 500 501 502 503 504 505 506 507 508 509 510 511 512 513 514 515 516 517 518 519 520 521 522 523 524 525 526 527 528 529 530 531 532 533 534 535 536 537 538 539 540 541 542 543 544 545 546 547 548 549 550 551 552 553 554 555 556 557 558 559 560 561 562 563 564 565 566 567 568 569 570 571 572 573 574 575 

SCALARS geom_link_dim int 1
LOOKUP_TABLE default
0 0 0 2 0 0 0 2 0 0 0 0 2 0 2 0 2 2 2 0 2 0 0 0 0 2 0 0 0 0 0 2 0 0 0 0 2 0 0 0 0 0 0 0 0 2 0 0 0 0 0 0 0 0 0 0 2 0 0 0 0 0 0 0 0 0 0 0 2 0 0 2 0 0 0 0 0 0 2 2 0 0 0 0 0 2 0 0 0 0 0 0 0 0 0 0 0 0 2 2 0 0 0 2 0 2 0 2 0 0 0 2 2 0 0 0 0 0 0 0 0 0 0 0 0 0 0 2 2 0 0 0 0 0 0 0 0 0 0 0 0 0 0 0 0 0 2 2 0 0 0 0 0 0 0 0 0 2 0 0 0 0 0 0 0 0 2 0 0 0 0 0 0 0 0 2 0 2 0 0 2 0 0 0 0 0 2 2 0 0 0 0 0 2 0 0 0 0 0 0 0 0 0 0 0 2 2 0 0 0 0 0 0 0 0 0 0 0 2 2 0 0 0 0 0 0 0 0 0 0 0 0 0 2 0 0 2 0 0 0 0 0 0 0 2 0 2 0 0 0 0 0 2 0 0 0 2 0 0 0 0 0 0 0 0 2 0 2 0 0 0 0 0 0 2 0 0 0 0 2 0 0 0 2 0 0 2 0 0 0 0 0 2 0 0 0 2 0 2 0 0 0 0 0 0 0 0 0 0 0 0 0 0 0 0 0 0 0 0 0 0 0 0 0 0 0 0 0 0 0 0 2 0 0 0 0 0 0 0 0 0 0 0 0 0 0 2 0 2 2 0 0 0 0 2 2 0 0 0 0 0 0 0 0 2 2 0 0 0 0 2 2 0 0 2 0 0 0 0 0 0 0 0 0 0 0 0 0 0 0 0 0 0 0 0 0 0 0 0 0 0 0 0 2 2 0 0 0 0 0 0 0 0 0 0 0 2 2 0 0 0 0 0 0 0 0 0 0 0 2 0 0 2 0 0 0 0 0 0 0 0 0 0 0 0 0 2 2 0 0 0 0 0 0 0 0 0 2 2 0 0 0 0 0 0 0 0 0 0 0 0 0 0 0 0 0 0 2 2 0 0 0 0 0 0 0 0 0 0 0 0 0 0 0 0 0 0 0 0 0 0 0 0 0 0 0 0 0 2 0 0 0 0 0 2 0 0 0 0 0 0 0 0 0 0 0 0 0 0 0 0 0 0 0 2 0 2 0 0 2 

SCALARS geom_link_id int 1
LOOKUP_TABLE default
-1 0 0 22 0 -1 0 32 0 0 0 0 19 0 29 0 26 31 16 0 29 0 0 0 0 10 -1 0 0 0 0 30 0 0 0 0 32 0 0 0 0 0 0 0 0 26 0 0 0 0 -1 0 0 0 0 0 27 0 0 0 0 0 0 0 0 0 0 0 30 0 0 21 0 0 0 0 0 0 33 30 0 0 0 0 0 27 0 0 0 0 0 0 0 0 0 0 0 0 21 26 0 0 0 26 0 33 0 1 0 0 0 25 25 0 0 0 0 0 0 0 0 0 0 0 0 0 0 20 20 0 0 0 0 0 0 0 0 0 0 0 0 0 0 0 0 0 28 28 0 0 0 -1 0 0 0 0 0 25 0 0 -1 0 0 0 0 0 20 0 0 0 0 0 0 0 0 26 0 28 0 0 17 0 0 0 0 0 29 29 0 0 0 0 0 14 0 0 0 0 0 0 0 0 0 0 0 19 19 0 0 0 0 0 0 0 0 0 0 0 31 31 0 0 0 0 0 0 0 0 0 0 0 0 -1 9 0 0 2 -1 0 -1 0 0 0 0 25 0 36 0 0 0 0 -1 33 0 0 -1 21 -1 0 0 0 0 -1 0 -1 8 0 7 -1 0 -1 0 0 0 12 0 0 0 -1 32 0 0 -1 15 -1 0 5 0 0 -1 0 -1 27 0 0 0 3 0 29 0 0 0 0 0 0 0 0 0 0 0 0 0 0 0 0 0 0 0 -1 -1 0 0 0 0 0 0 0 -1 0 0 0 13 0 0 0 0 0 0 0 0 0 0 0 0 0 0 25 -1 19 19 0 0 0 0 31 31 0 0 0 0 0 0 0 0 33 33 0 0 0 0 21 21 0 0 11 0 0 0 0 0 0 0 0 0 0 0 0 0 0 0 0 0 0 0 0 0 0 0 0 0 0 0 0 32 32 0 0 0 0 0 0 0 0 0 0 0 27 27 0 0 0 0 0 0 0 0 0 0 0 23 0 0 34 0 0 0 0 0 -1 -1 -1 -1 -1 -1 -1 -1 20 20 -1 -1 -1 -1 -1 -1 -1 -1 -1 28 28 -1 -1 -1 -1 -1 -1 -1 -1 -1 -1 -1 -1 -1 -1 -1 -1 -1 -1 30 30 -1 -1 -1 -1 -1 -1 -1 -1 -1 -1 -1 -1 -1 -1 -1 -1 -1 -1 -1 -1 -1 -1 -1 -1 -1 -1 -1 -1 -1 35 -1 -1 -1 -1 -1 24 -1 -1 -1 -1 -1 -1 -1 -1 -1 -1 -1 -1 -1 -1 -1 -1 -1 -1 -1 18 -1 6 -1 -1 4 

