# vtk DataFile Version 3.0
Generated by GMDS VTK Writer

ASCII
DATASET UNSTRUCTURED_GRID
POINTS 16 float
0 0 0
0 10 0
10 10 0
10 0 0
0 0 10
0 10 10
10 10 10
10 0 10
0 1 0
0 1 10
10 1 10
10 1 0
0 6 0
0 6 10
10 6 10
10 6 0

CELLS 28 84
2 13 5
2 1 2
2 9 13
2 3 0
2 12 1
2 5 6
2 8 12
2 7 4
2 0 4
2 1 5
2 2 6
2 3 7
2 0 8
2 4 9
2 7 10
2 3 11
2 8 9
2 9 10
2 11 10
2 8 11
2 10 14
2 14 6
2 11 15
2 15 2
2 12 13
2 13 14
2 14 15
2 12 15

CELL_TYPES 28
3 
3 
3 
3 
3 
3 
3 
3 
3 
3 
3 
3 
3 
3 
3 
3 
3 
3 
3 
3 
3 
3 
3 
3 
3 
3 
3 
3 
POINT_DATA 16
SCALARS GMDS_ID int 1
LOOKUP_TABLE default
0 1 2 3 4 5 6 7 8 9 10 11 12 13 14 15 
SCALARS geom_link_dim int 1
LOOKUP_TABLE default
1 1 1 1 1 1 1 1 2 2 2 2 2 2 2 2 
SCALARS geom_link_id int 1
LOOKUP_TABLE default
10 12 16 13 9 11 15 14 19 29 26 31 19 29 26 31 


CELL_DATA 28
SCALARS GMDS_ID int 1
LOOKUP_TABLE default
0 1 2 3 4 5 6 7 8 9 10 11 12 14 16 18 20 21 22 23 24 25 26 27 28 29 30 31 

SCALARS geom_link_dim int 1
LOOKUP_TABLE default
2 2 2 2 2 2 2 2 2 2 2 2 2 2 2 2 0 0 0 0 2 2 2 2 0 0 0 0 

SCALARS geom_link_id int 1
LOOKUP_TABLE default
29 30 29 20 19 25 19 28 21 32 27 33 19 29 26 31 0 0 0 0 26 26 31 31 -1 -1 -1 -1 

