# vtk DataFile Version 3.0
Generated by GMDS VTK Writer

ASCII
DATASET UNSTRUCTURED_GRID
POINTS 24 float
0 0 0
0 10 0
10 10 0
10 0 0
0 0 10
0 10 10
10 10 10
10 0 10
0 1 0
0 1 10
10 1 10
10 1 0
0 6 0
0 6 10
10 6 10
10 6 0
6 6 0
6 6 10
6 10 10
6 10 0
6 1 0
6 1 10
6 0 0
6 0 10

CELLS 46 138
2 13 5
2 9 13
2 12 1
2 8 12
2 0 4
2 1 5
2 2 6
2 3 7
2 0 8
2 12 16
2 4 9
2 13 17
2 7 10
2 17 14
2 3 11
2 16 15
2 8 9
2 11 10
2 10 14
2 14 6
2 11 15
2 15 2
2 12 13
2 14 15
2 5 18
2 18 6
2 1 19
2 19 2
2 16 17
2 18 17
2 19 18
2 19 16
2 8 20
2 20 11
2 9 21
2 21 10
2 20 21
2 21 17
2 20 16
2 0 22
2 22 3
2 4 23
2 23 7
2 22 23
2 23 21
2 22 20

CELL_TYPES 46
3 
3 
3 
3 
3 
3 
3 
3 
3 
3 
3 
3 
3 
3 
3 
3 
3 
3 
3 
3 
3 
3 
3 
3 
3 
3 
3 
3 
3 
3 
3 
3 
3 
3 
3 
3 
3 
3 
3 
3 
3 
3 
3 
3 
3 
3 
POINT_DATA 24
SCALARS GMDS_ID int 1
LOOKUP_TABLE default
0 1 2 3 4 5 6 7 8 9 10 11 12 13 14 15 16 17 18 19 20 21 22 23 
SCALARS geom_link_dim int 1
LOOKUP_TABLE default
1 1 1 1 1 1 1 1 2 2 2 2 2 2 2 2 3 3 2 2 3 3 2 2 
SCALARS geom_link_id int 1
LOOKUP_TABLE default
10 12 16 13 9 11 15 14 19 29 26 31 19 29 26 31 11 18 25 30 11 18 20 28 


CELL_DATA 46
SCALARS GMDS_ID int 1
LOOKUP_TABLE default
0 2 4 6 8 9 10 11 12 13 14 15 16 17 18 19 20 22 24 25 26 27 28 30 32 33 34 35 36 37 38 39 40 41 42 43 44 45 46 47 48 49 50 51 52 53 

SCALARS geom_link_dim int 1
LOOKUP_TABLE default
2 2 2 2 2 2 2 2 2 0 2 0 2 0 2 0 0 0 2 2 2 2 0 0 2 2 2 2 0 0 0 0 0 0 0 0 0 0 0 2 2 2 2 0 0 0 

SCALARS geom_link_id int 1
LOOKUP_TABLE default
29 29 19 19 21 32 27 33 19 -1 29 -1 26 -1 31 -1 0 0 26 26 31 31 0 0 25 25 30 30 -1 -1 -1 -1 -1 -1 -1 -1 -1 -1 -1 20 20 28 28 -1 -1 -1 

