# vtk DataFile Version 3.0
Generated by GMDS VTK Writer

ASCII
DATASET UNSTRUCTURED_GRID
POINTS 24 float
0 0 0
0 10 0
10 10 0
10 0 0
0 0 10
0 10 10
10 10 10
10 0 10
6 0 0
6 10 0
6 10 10
6 0 10
0 0 8
0 10 8
6 10 8
6 0 8
10 10 8
10 0 8
0 0 6
0 10 6
6 10 6
6 0 6
10 10 6
10 0 6

CELLS 46 138
2 0 1
2 2 3
2 4 5
2 13 5
2 6 7
2 12 4
2 1 19
2 9 20
2 18 12
2 0 18
2 0 8
2 8 3
2 1 9
2 9 2
2 5 10
2 10 6
2 4 11
2 11 7
2 8 9
2 20 14
2 11 10
2 19 13
2 14 10
2 15 11
2 12 13
2 13 14
2 15 14
2 12 15
2 16 6
2 17 7
2 16 14
2 16 17
2 17 15
2 8 21
2 21 15
2 18 19
2 19 20
2 21 20
2 18 21
2 2 22
2 22 16
2 3 23
2 23 17
2 22 20
2 22 23
2 23 21

CELL_TYPES 46
3 
3 
3 
3 
3 
3 
3 
3 
3 
3 
3 
3 
3 
3 
3 
3 
3 
3 
3 
3 
3 
3 
3 
3 
3 
3 
3 
3 
3 
3 
3 
3 
3 
3 
3 
3 
3 
3 
3 
3 
3 
3 
3 
3 
3 
3 
POINT_DATA 24
SCALARS GMDS_ID int 1
LOOKUP_TABLE default
0 1 2 3 4 5 6 7 8 9 10 11 12 13 14 15 16 17 18 19 20 21 22 23 
SCALARS geom_link_dim int 1
LOOKUP_TABLE default
1 1 1 1 1 1 1 1 2 2 2 2 2 2 3 3 2 2 2 2 3 3 2 2 
SCALARS geom_link_id int 1
LOOKUP_TABLE default
10 12 16 13 9 11 15 14 20 30 25 28 21 32 17 12 27 33 21 32 17 12 27 33 


CELL_DATA 46
SCALARS GMDS_ID int 1
LOOKUP_TABLE default
0 2 4 5 6 7 8 9 10 11 12 13 14 15 16 17 18 19 20 21 22 23 25 27 28 29 30 31 33 35 36 37 38 39 40 41 42 43 44 45 46 47 48 49 50 51 

SCALARS geom_link_dim int 1
LOOKUP_TABLE default
2 2 2 2 2 2 2 0 2 2 2 2 2 2 2 2 2 2 0 0 0 2 0 0 0 0 0 0 2 2 0 0 0 0 0 0 0 0 0 2 2 2 2 0 0 0 

SCALARS geom_link_id int 1
LOOKUP_TABLE default
19 31 29 32 26 21 32 -1 21 21 20 20 30 30 25 25 28 28 0 -1 0 32 0 0 0 0 0 0 27 33 0 0 0 -1 -1 -1 -1 -1 -1 27 27 33 33 -1 -1 -1 

