# vtk DataFile Version 3.0
Generated by GMDS VTK Writer

ASCII
DATASET UNSTRUCTURED_GRID
POINTS 120 float
0 0 0
0 10 0
10 10 0
10 0 0
0 0 10
0 10 10
10 10 10
10 0 10
6 0 0
6 10 0
6 10 10
6 0 10
4 0 0
4 10 0
4 10 10
4 0 10
4 0 8
4 10 8
6 10 8
6 0 8
0 0 8
0 10 8
10 10 8
10 0 8
6 1 0
4 1 0
4 1 8
6 1 8
4 1 10
6 1 10
0 1 0
0 1 8
0 1 10
10 1 0
10 1 8
10 1 10
6 6 0
4 6 0
4 6 8
6 6 8
4 6 10
6 6 10
0 6 0
0 6 8
0 6 10
10 6 0
10 6 8
10 6 10
6 8 8
4 8 8
4 8 10
6 8 10
6 8 0
4 8 0
0 8 0
0 8 8
0 8 10
10 8 0
10 8 8
10 8 10
8 0 0
8 0 8
8 1 8
8 1 0
8 1 10
8 6 10
8 6 8
8 8 0
8 8 8
8 10 8
8 10 0
8 6 0
8 0 10
8 8 10
8 10 10
6 4 0
4 4 0
4 4 8
6 4 8
8 4 8
8 4 10
10 4 10
10 4 8
4 4 10
6 4 10
0 4 0
0 4 8
0 4 10
8 4 0
10 4 0
4 6 6
0 6 6
0 8 6
4 8 6
6 0 6
4 0 6
4 1 6
6 1 6
6 8 6
4 10 6
6 10 6
0 0 6
0 1 6
6 6 6
8 0 6
8 1 6
10 1 6
10 0 6
0 10 6
6 4 6
4 4 6
8 8 6
8 10 6
10 8 6
10 10 6
8 6 6
10 6 6
0 4 6
8 4 6
10 4 6

CELLS 286 858
2 1 13
2 93 49
2 0 12
2 24 63
2 13 9
2 94 19
2 12 8
2 50 51
2 8 24
2 49 50
2 16 26
2 17 14
2 24 75
2 76 37
2 77 38
2 16 15
2 25 76
2 93 92
2 48 51
2 90 93
2 19 27
2 5 14
2 14 10
2 4 15
2 15 11
2 38 39
2 49 48
2 12 25
2 18 10
2 19 11
2 36 37
2 18 17
2 60 63
2 19 16
2 20 4
2 21 5
2 21 17
2 20 16
2 22 6
2 23 7
2 26 77
2 63 33
2 75 36
2 24 25
2 26 27
2 15 28
2 41 51
2 11 29
2 51 10
2 28 26
2 29 28
2 29 27
2 0 30
2 39 48
2 20 31
2 48 18
2 30 25
2 26 31
2 4 32
2 38 49
2 32 28
2 32 31
2 3 33
2 40 50
2 23 34
2 50 14
2 79 66
2 7 35
2 49 17
2 35 34
2 91 92
2 90 91
2 61 62
2 38 40
2 40 41
2 39 41
2 12 95
2 19 61
2 8 94
2 60 3
2 37 42
2 38 43
2 53 93
2 8 60
2 40 44
2 43 44
2 37 90
2 27 62
2 42 91
2 62 34
2 62 79
2 64 80
2 90 38
2 61 23
2 77 78
2 46 47
2 36 52
2 52 9
2 37 53
2 53 13
2 52 53
2 42 54
2 54 1
2 43 55
2 55 21
2 53 54
2 49 55
2 44 56
2 56 5
2 50 56
2 55 56
2 45 57
2 57 2
2 46 58
2 58 22
2 78 39
2 75 76
2 47 59
2 59 6
2 27 78
2 58 59
2 29 64
2 64 35
2 41 65
2 65 47
2 39 66
2 66 46
2 62 64
2 91 43
2 66 65
2 54 92
2 52 67
2 67 57
2 48 68
2 68 58
2 18 69
2 69 22
2 9 70
2 70 2
2 69 68
2 70 67
2 36 71
2 71 45
2 66 68
2 71 67
2 92 55
2 11 72
2 72 7
2 72 61
2 72 64
2 51 73
2 73 59
2 10 74
2 74 6
2 68 73
2 74 73
2 74 69
2 65 73
2 80 65
2 35 81
2 81 47
2 34 82
2 82 46
2 79 80
2 81 80
2 82 81
2 82 79
2 28 83
2 83 40
2 29 84
2 84 41
2 77 83
2 83 84
2 78 84
2 30 85
2 85 42
2 31 86
2 86 43
2 76 85
2 77 86
2 32 87
2 87 44
2 83 87
2 86 87
2 84 80
2 78 79
2 63 88
2 88 71
2 33 89
2 89 45
2 89 88
2 75 88
2 95 16
2 25 96
2 96 26
2 24 97
2 97 27
2 94 95
2 95 96
2 97 96
2 94 97
2 52 98
2 98 48
2 13 99
2 99 17
2 9 100
2 100 18
2 98 93
2 99 93
2 100 99
2 100 98
2 0 101
2 101 20
2 30 102
2 102 31
2 101 95
2 96 102
2 101 102
2 36 103
2 103 39
2 103 90
2 103 98
2 60 104
2 104 61
2 63 105
2 105 62
2 33 106
2 106 34
2 3 107
2 107 23
2 104 105
2 106 105
2 107 106
2 107 104
2 97 105
2 94 104
2 1 108
2 108 21
2 108 92
2 108 99
2 75 109
2 109 78
2 76 110
2 110 77
2 109 110
2 90 110
2 103 109
2 96 110
2 97 109
2 67 111
2 111 68
2 70 112
2 112 69
2 98 111
2 111 112
2 100 112
2 57 113
2 113 58
2 2 114
2 114 22
2 113 111
2 114 113
2 114 112
2 71 115
2 115 66
2 111 115
2 103 115
2 45 116
2 116 46
2 116 113
2 116 115
2 85 117
2 117 86
2 102 117
2 110 117
2 91 117
2 88 118
2 118 79
2 89 119
2 119 82
2 105 118
2 118 119
2 106 119
2 115 118
2 116 119
2 109 118

CELL_TYPES 286
3 
3 
3 
3 
3 
3 
3 
3 
3 
3 
3 
3 
3 
3 
3 
3 
3 
3 
3 
3 
3 
3 
3 
3 
3 
3 
3 
3 
3 
3 
3 
3 
3 
3 
3 
3 
3 
3 
3 
3 
3 
3 
3 
3 
3 
3 
3 
3 
3 
3 
3 
3 
3 
3 
3 
3 
3 
3 
3 
3 
3 
3 
3 
3 
3 
3 
3 
3 
3 
3 
3 
3 
3 
3 
3 
3 
3 
3 
3 
3 
3 
3 
3 
3 
3 
3 
3 
3 
3 
3 
3 
3 
3 
3 
3 
3 
3 
3 
3 
3 
3 
3 
3 
3 
3 
3 
3 
3 
3 
3 
3 
3 
3 
3 
3 
3 
3 
3 
3 
3 
3 
3 
3 
3 
3 
3 
3 
3 
3 
3 
3 
3 
3 
3 
3 
3 
3 
3 
3 
3 
3 
3 
3 
3 
3 
3 
3 
3 
3 
3 
3 
3 
3 
3 
3 
3 
3 
3 
3 
3 
3 
3 
3 
3 
3 
3 
3 
3 
3 
3 
3 
3 
3 
3 
3 
3 
3 
3 
3 
3 
3 
3 
3 
3 
3 
3 
3 
3 
3 
3 
3 
3 
3 
3 
3 
3 
3 
3 
3 
3 
3 
3 
3 
3 
3 
3 
3 
3 
3 
3 
3 
3 
3 
3 
3 
3 
3 
3 
3 
3 
3 
3 
3 
3 
3 
3 
3 
3 
3 
3 
3 
3 
3 
3 
3 
3 
3 
3 
3 
3 
3 
3 
3 
3 
3 
3 
3 
3 
3 
3 
3 
3 
3 
3 
3 
3 
3 
3 
3 
3 
3 
3 
3 
3 
3 
3 
3 
3 
3 
3 
3 
3 
3 
3 
3 
3 
3 
3 
3 
3 
3 
3 
3 
3 
3 
3 
POINT_DATA 120
SCALARS GMDS_ID int 1
LOOKUP_TABLE default
0 1 2 3 4 5 6 7 8 9 10 11 12 13 14 15 16 17 18 19 20 21 22 23 24 25 26 27 28 29 30 31 32 33 34 35 36 37 38 39 40 41 42 43 44 45 46 47 48 49 50 51 52 53 54 55 56 57 58 59 60 61 62 63 64 65 66 67 68 69 70 71 72 73 74 75 76 77 78 79 80 81 82 83 84 85 86 87 88 89 90 91 92 93 94 95 96 97 98 99 100 101 102 103 104 105 106 107 108 109 110 111 112 113 114 115 116 117 118 119 
SCALARS geom_link_dim_0 int 1
LOOKUP_TABLE default
0 0 0 0 0 0 0 0 0 0 0 0 0 0 0 0 0 0 0 0 0 0 0 0 0 0 0 0 0 0 0 0 0 0 0 0 0 0 0 0 0 0 0 0 0 0 0 0 0 0 0 0 0 0 0 0 0 0 0 0 0 0 0 0 0 0 0 0 0 0 0 0 0 0 0 0 0 0 0 0 0 0 0 0 0 0 0 0 0 0 0 0 0 0 0 0 0 0 0 0 0 0 0 0 0 0 0 0 0 0 0 0 0 0 0 0 0 0 0 0 
SCALARS geom_link_id_0 int 1
LOOKUP_TABLE default
0 0 0 0 0 0 0 0 0 0 0 0 0 0 0 0 0 0 0 0 0 0 0 0 0 0 0 0 0 0 0 0 0 0 0 0 0 0 0 0 0 0 0 0 0 0 0 0 0 0 0 0 0 0 0 0 0 0 0 0 0 0 0 0 0 0 0 0 0 0 0 0 0 0 0 0 0 0 0 0 0 0 0 0 0 0 0 0 0 0 0 0 0 0 0 0 0 0 0 0 0 0 0 0 0 0 0 0 0 0 0 0 0 0 0 0 0 0 0 0 


CELL_DATA 286
SCALARS GMDS_ID int 1
LOOKUP_TABLE default
1 2 3 4 5 6 7 8 9 10 11 12 13 15 17 18 19 20 21 22 23 24 25 26 27 28 29 31 33 35 36 37 38 39 41 43 45 46 48 50 51 52 53 54 56 58 59 60 61 62 63 64 65 66 67 68 69 70 72 73 74 75 76 77 78 79 81 83 84 86 87 89 90 91 92 93 94 95 96 97 98 99 101 102 103 104 105 106 107 108 109 110 112 113 114 115 116 117 118 119 120 123 124 125 126 127 128 130 131 132 133 134 135 136 137 138 139 141 142 143 144 145 146 147 148 149 150 151 152 153 154 155 156 157 158 159 160 161 162 164 166 167 168 170 171 172 173 174 175 176 177 178 179 180 181 182 183 184 185 186 187 188 189 190 191 192 193 194 195 196 197 198 199 200 201 202 203 204 205 206 208 209 210 211 212 213 214 215 216 217 220 221 222 223 224 225 226 227 228 229 230 231 232 233 234 235 236 237 238 239 240 241 242 243 244 245 246 247 248 249 250 251 252 253 254 255 256 257 258 259 260 261 262 263 264 265 266 267 268 269 270 271 272 273 274 275 276 277 278 279 280 281 282 283 284 285 286 287 288 289 290 291 292 293 294 295 296 297 298 299 300 301 302 303 304 305 306 307 308 309 310 311 312 313 314 315 

SCALARS geom_link_dim_0 int 1
LOOKUP_TABLE default
0 0 0 0 0 0 0 0 0 0 0 0 0 0 0 0 0 0 0 0 0 0 0 0 0 0 0 0 0 0 0 0 0 0 0 0 0 0 0 0 0 0 0 0 0 0 0 0 0 0 0 0 0 0 0 0 0 0 0 0 0 0 0 0 0 0 0 0 0 0 0 0 0 0 0 0 0 0 0 0 0 0 0 0 0 0 0 0 0 0 0 0 0 0 0 0 0 0 0 0 0 0 0 0 0 0 0 0 0 0 0 0 0 0 0 0 0 0 0 0 0 0 0 0 0 0 0 0 0 0 0 0 0 0 0 0 0 0 0 0 0 0 0 0 0 0 0 0 0 0 0 0 0 0 0 0 0 0 0 0 0 0 0 0 0 0 0 0 0 0 0 0 0 0 0 0 0 0 0 0 0 0 0 0 0 0 0 0 0 0 0 0 0 0 0 0 0 0 0 0 0 0 0 0 0 0 0 0 0 0 0 0 0 0 0 0 0 0 0 0 0 0 0 0 0 0 0 0 0 0 0 0 0 0 0 0 0 0 0 0 0 0 0 0 0 0 0 0 0 0 0 0 0 0 0 0 0 0 0 0 0 0 0 0 0 0 0 0 0 0 0 0 0 0 0 0 0 0 0 0 0 0 0 0 0 0 

SCALARS geom_link_id_0 int 1
LOOKUP_TABLE default
0 0 0 0 0 0 0 0 0 0 0 0 0 0 0 0 0 0 0 0 0 0 0 0 0 0 0 0 0 0 0 0 0 0 0 0 0 0 0 0 0 0 0 0 0 0 0 0 0 0 0 0 0 0 0 0 0 0 0 0 0 0 0 0 0 0 0 0 0 0 0 0 0 0 0 0 0 0 0 0 0 0 0 0 0 0 0 0 0 0 0 0 0 0 0 0 0 0 0 0 0 0 0 0 0 0 0 0 0 0 0 0 0 0 0 0 0 0 0 0 0 0 0 0 0 0 0 0 0 0 0 0 0 0 0 0 0 0 0 0 0 0 0 0 0 0 0 0 0 0 0 0 0 0 0 0 0 0 0 0 0 0 0 0 0 0 0 0 0 0 0 0 0 0 0 0 0 0 0 0 0 0 0 0 0 0 0 0 0 0 0 0 0 0 0 0 0 0 0 0 0 0 0 0 0 0 0 0 0 0 0 0 0 0 0 0 0 0 0 0 0 0 0 0 0 0 0 0 0 0 0 0 0 0 0 0 0 0 0 0 0 0 0 0 0 0 0 0 0 0 0 0 0 0 0 0 0 0 0 0 0 0 0 0 0 0 0 0 0 0 0 0 0 0 0 0 0 0 0 0 0 0 0 0 0 0 

