# vtk DataFile Version 3.0
Generated by GMDS VTK Writer

ASCII
DATASET UNSTRUCTURED_GRID
POINTS 216 float
0 0 0
0 10 0
10 10 0
10 0 0
0 0 10
0 10 10
10 10 10
10 0 10
0 1 0
0 1 10
10 1 10
10 1 0
0 6 0
0 6 10
10 6 10
10 6 0
6 6 0
6 6 10
6 10 10
6 10 0
6 1 0
6 1 10
6 0 0
6 0 10
0 10 1
0 6 1
6 6 1
6 10 1
10 6 1
10 10 1
0 1 1
6 1 1
10 1 1
0 0 1
6 0 1
10 0 1
0 10 8
0 6 8
6 6 8
6 10 8
10 6 8
10 10 8
0 1 8
6 1 8
10 1 8
0 0 8
6 0 8
10 0 8
8 6 0
8 10 0
8 10 1
8 6 1
8 6 8
8 10 8
8 10 10
8 6 10
8 1 0
8 1 1
8 0 0
8 0 1
8 1 8
8 1 10
8 0 8
8 0 10
1 6 1
1 1 1
1 1 8
1 6 8
1 10 0
1 6 0
1 10 1
1 10 8
1 6 10
1 10 10
1 1 0
1 0 0
1 0 1
1 1 10
1 0 8
1 0 10
8 8 10
8 8 8
10 8 8
10 8 10
1 8 10
1 8 8
6 8 8
6 8 10
0 8 10
0 8 8
1 8 0
1 8 1
6 8 1
6 8 0
0 8 0
0 8 1
8 8 0
8 8 1
10 8 1
10 8 0
1 6 6
1 1 6
6 1 6
6 6 6
0 6 6
0 1 6
8 1 6
8 6 6
10 1 6
10 6 6
6 0 6
8 0 6
10 0 6
0 0 6
1 0 6
1 8 6
6 8 6
1 10 6
6 10 6
0 8 6
0 10 6
8 8 6
10 8 6
8 10 6
10 10 6
1 6 4
1 1 4
6 1 4
6 6 4
0 6 4
0 1 4
8 1 4
8 6 4
10 1 4
10 6 4
6 0 4
8 0 4
10 0 4
0 0 4
1 0 4
1 8 4
6 8 4
1 10 4
6 10 4
0 8 4
0 10 4
8 8 4
10 8 4
8 10 4
10 10 4
4 8 8
4 8 10
4 10 10
4 10 8
4 6 8
4 6 10
4 6 6
4 1 6
4 1 8
4 1 0
4 6 0
4 6 1
4 1 1
4 0 0
4 0 1
4 1 10
4 0 8
4 0 10
4 8 0
4 8 1
4 10 0
4 10 1
4 6 4
4 1 4
4 0 6
4 8 6
4 10 6
4 0 4
4 8 4
4 10 4
8 4 10
8 4 8
10 4 8
10 4 10
0 4 10
0 4 8
1 4 8
1 4 10
6 4 10
6 4 8
10 4 6
8 4 6
6 4 6
0 4 6
1 4 6
0 4 0
0 4 1
1 4 1
1 4 0
8 4 0
8 4 1
10 4 1
10 4 0
6 4 0
6 4 1
4 4 1
4 4 0
10 4 4
8 4 4
6 4 4
0 4 4
1 4 4
4 4 8
4 4 6
4 4 10
4 4 4

CELLS 540 1620
2 66 158
2 12 25
2 101 157
2 101 66
2 156 103
2 1 24
2 39 18
2 125 100
2 126 101
2 38 17
2 0 8
2 83 82
2 4 9
2 40 82
2 7 10
2 182 181
2 3 11
2 17 188
2 52 81
2 19 27
2 16 26
2 103 38
2 72 155
2 49 50
2 37 13
2 48 51
2 81 53
2 1 68
2 55 80
2 25 64
2 100 67
2 104 37
2 36 5
2 102 43
2 83 80
2 30 65
2 82 41
2 37 185
2 72 84
2 81 80
2 189 181
2 14 83
2 37 67
2 30 130
2 23 21
2 22 20
2 158 43
2 67 85
2 105 101
2 80 54
2 15 28
2 51 28
2 2 29
2 26 51
2 127 131
2 8 30
2 27 50
2 20 31
2 50 29
2 85 71
2 11 32
2 49 2
2 0 33
2 16 48
2 22 34
2 48 15
2 33 30
2 31 34
2 82 81
2 3 35
2 19 49
2 35 32
2 42 66
2 25 129
2 40 14
2 185 186
2 41 6
2 184 187
2 186 66
2 12 69
2 31 127
2 42 9
2 132 107
2 43 21
2 84 73
2 44 10
2 51 132
2 127 102
2 45 4
2 128 103
2 46 23
2 42 45
2 43 46
2 83 6
2 189 43
2 47 7
2 44 47
2 181 60
2 38 52
2 52 40
2 39 53
2 53 41
2 18 54
2 54 6
2 17 55
2 55 14
2 105 42
2 54 53
2 72 187
2 55 52
2 130 105
2 131 106
2 20 56
2 56 11
2 31 57
2 57 32
2 56 57
2 22 58
2 58 3
2 34 59
2 59 35
2 56 58
2 58 59
2 57 59
2 43 60
2 60 44
2 57 131
2 21 61
2 61 10
2 61 60
2 46 62
2 62 47
2 60 62
2 23 63
2 63 7
2 63 62
2 61 63
2 24 70
2 183 182
2 157 102
2 69 64
2 68 70
2 36 71
2 13 184
2 13 72
2 182 44
2 5 73
2 183 10
2 104 100
2 72 67
2 100 156
2 73 71
2 64 125
2 8 74
2 188 21
2 74 65
2 0 75
2 186 187
2 33 76
2 188 189
2 75 74
2 65 76
2 75 76
2 9 77
2 40 182
2 77 66
2 45 78
2 52 181
2 26 128
2 66 78
2 4 79
2 180 61
2 79 78
2 79 77
2 38 86
2 86 39
2 17 87
2 87 18
2 85 84
2 185 42
2 87 86
2 14 183
2 13 88
2 88 5
2 37 89
2 89 36
2 88 89
2 89 85
2 88 84
2 86 81
2 87 80
2 69 90
2 90 68
2 64 91
2 91 70
2 26 92
2 92 27
2 16 93
2 93 19
2 91 90
2 187 77
2 93 92
2 181 180
2 12 94
2 94 1
2 25 95
2 95 24
2 94 95
2 95 91
2 94 90
2 48 96
2 96 49
2 51 97
2 97 50
2 28 98
2 98 29
2 15 99
2 99 2
2 96 97
2 98 97
2 99 98
2 99 96
2 92 97
2 93 96
2 130 126
2 129 125
2 65 126
2 129 104
2 106 60
2 153 150
2 107 52
2 102 106
2 103 107
2 154 38
2 108 44
2 153 152
2 109 40
2 108 106
2 109 107
2 154 155
2 110 46
2 155 17
2 111 62
2 102 110
2 110 111
2 106 111
2 67 154
2 112 47
2 112 111
2 108 112
2 155 151
2 113 45
2 154 150
2 114 78
2 105 113
2 113 114
2 101 114
2 55 180
2 84 151
2 115 85
2 152 18
2 116 86
2 100 115
2 67 186
2 103 116
2 151 87
2 117 71
2 73 152
2 118 39
2 117 115
2 184 9
2 118 116
2 150 86
2 119 89
2 115 119
2 104 119
2 85 150
2 120 36
2 120 117
2 120 119
2 151 150
2 121 81
2 152 151
2 122 82
2 107 121
2 121 122
2 109 122
2 153 39
2 123 53
2 71 153
2 124 41
2 123 121
2 124 123
2 124 122
2 116 121
2 118 123
2 128 132
2 32 133
2 133 108
2 28 134
2 134 109
2 133 131
2 134 132
2 34 135
2 135 110
2 59 136
2 136 111
2 127 135
2 135 136
2 131 136
2 35 137
2 137 112
2 137 136
2 133 137
2 33 138
2 138 113
2 76 139
2 139 114
2 130 138
2 138 139
2 126 139
2 38 189
2 91 140
2 140 115
2 92 141
2 141 116
2 125 140
2 184 185
2 128 141
2 70 142
2 142 117
2 27 143
2 143 118
2 142 140
2 183 180
2 143 141
2 95 144
2 144 119
2 140 144
2 129 144
2 24 145
2 145 120
2 145 142
2 145 144
2 97 146
2 146 121
2 98 147
2 147 122
2 132 146
2 146 147
2 134 147
2 50 148
2 148 123
2 29 149
2 149 124
2 148 146
2 149 148
2 149 147
2 141 146
2 143 148
2 158 157
2 154 156
2 74 159
2 159 20
2 69 160
2 160 16
2 64 161
2 161 26
2 65 162
2 162 31
2 161 160
2 162 159
2 75 163
2 163 22
2 76 164
2 164 34
2 159 163
2 162 164
2 163 164
2 77 165
2 165 21
2 158 165
2 78 166
2 166 46
2 79 167
2 167 23
2 158 166
2 166 167
2 165 167
2 90 168
2 168 93
2 91 169
2 169 92
2 160 168
2 168 169
2 161 169
2 68 170
2 170 19
2 70 171
2 171 27
2 170 168
2 170 171
2 171 169
2 125 172
2 172 128
2 126 173
2 173 127
2 157 173
2 156 172
2 162 173
2 161 172
2 114 174
2 174 110
2 157 174
2 166 174
2 115 175
2 175 116
2 156 175
2 150 175
2 117 176
2 176 118
2 175 176
2 153 176
2 139 177
2 177 135
2 164 177
2 173 177
2 174 177
2 140 178
2 178 141
2 169 178
2 172 178
2 175 178
2 142 179
2 179 143
2 178 179
2 171 179
2 176 179
2 188 180
2 109 190
2 190 108
2 107 191
2 191 106
2 191 190
2 181 191
2 182 190
2 103 192
2 192 102
2 192 191
2 189 192
2 104 193
2 193 105
2 100 194
2 194 101
2 194 193
2 186 194
2 185 193
2 12 195
2 195 8
2 25 196
2 196 30
2 64 197
2 197 65
2 69 198
2 198 74
2 195 196
2 196 197
2 197 198
2 195 198
2 48 199
2 199 56
2 51 200
2 200 57
2 28 201
2 201 32
2 15 202
2 202 11
2 199 200
2 201 200
2 202 201
2 202 199
2 16 203
2 203 20
2 26 204
2 204 31
2 203 204
2 204 200
2 203 199
2 161 205
2 205 162
2 160 206
2 206 159
2 206 205
2 203 206
2 204 205
2 134 207
2 207 133
2 132 208
2 208 131
2 208 207
2 191 208
2 190 207
2 200 208
2 201 207
2 198 206
2 197 205
2 128 209
2 209 127
2 209 208
2 192 209
2 204 209
2 129 210
2 210 130
2 125 211
2 211 126
2 211 210
2 194 211
2 193 210
2 197 211
2 196 210
2 154 212
2 212 158
2 156 213
2 213 157
2 212 213
2 192 213
2 189 212
2 194 213
2 186 212
2 155 214
2 214 165
2 212 214
2 188 214
2 187 214
2 172 215
2 215 173
2 211 215
2 213 215
2 209 215
2 205 215

CELL_TYPES 540
3 
3 
3 
3 
3 
3 
3 
3 
3 
3 
3 
3 
3 
3 
3 
3 
3 
3 
3 
3 
3 
3 
3 
3 
3 
3 
3 
3 
3 
3 
3 
3 
3 
3 
3 
3 
3 
3 
3 
3 
3 
3 
3 
3 
3 
3 
3 
3 
3 
3 
3 
3 
3 
3 
3 
3 
3 
3 
3 
3 
3 
3 
3 
3 
3 
3 
3 
3 
3 
3 
3 
3 
3 
3 
3 
3 
3 
3 
3 
3 
3 
3 
3 
3 
3 
3 
3 
3 
3 
3 
3 
3 
3 
3 
3 
3 
3 
3 
3 
3 
3 
3 
3 
3 
3 
3 
3 
3 
3 
3 
3 
3 
3 
3 
3 
3 
3 
3 
3 
3 
3 
3 
3 
3 
3 
3 
3 
3 
3 
3 
3 
3 
3 
3 
3 
3 
3 
3 
3 
3 
3 
3 
3 
3 
3 
3 
3 
3 
3 
3 
3 
3 
3 
3 
3 
3 
3 
3 
3 
3 
3 
3 
3 
3 
3 
3 
3 
3 
3 
3 
3 
3 
3 
3 
3 
3 
3 
3 
3 
3 
3 
3 
3 
3 
3 
3 
3 
3 
3 
3 
3 
3 
3 
3 
3 
3 
3 
3 
3 
3 
3 
3 
3 
3 
3 
3 
3 
3 
3 
3 
3 
3 
3 
3 
3 
3 
3 
3 
3 
3 
3 
3 
3 
3 
3 
3 
3 
3 
3 
3 
3 
3 
3 
3 
3 
3 
3 
3 
3 
3 
3 
3 
3 
3 
3 
3 
3 
3 
3 
3 
3 
3 
3 
3 
3 
3 
3 
3 
3 
3 
3 
3 
3 
3 
3 
3 
3 
3 
3 
3 
3 
3 
3 
3 
3 
3 
3 
3 
3 
3 
3 
3 
3 
3 
3 
3 
3 
3 
3 
3 
3 
3 
3 
3 
3 
3 
3 
3 
3 
3 
3 
3 
3 
3 
3 
3 
3 
3 
3 
3 
3 
3 
3 
3 
3 
3 
3 
3 
3 
3 
3 
3 
3 
3 
3 
3 
3 
3 
3 
3 
3 
3 
3 
3 
3 
3 
3 
3 
3 
3 
3 
3 
3 
3 
3 
3 
3 
3 
3 
3 
3 
3 
3 
3 
3 
3 
3 
3 
3 
3 
3 
3 
3 
3 
3 
3 
3 
3 
3 
3 
3 
3 
3 
3 
3 
3 
3 
3 
3 
3 
3 
3 
3 
3 
3 
3 
3 
3 
3 
3 
3 
3 
3 
3 
3 
3 
3 
3 
3 
3 
3 
3 
3 
3 
3 
3 
3 
3 
3 
3 
3 
3 
3 
3 
3 
3 
3 
3 
3 
3 
3 
3 
3 
3 
3 
3 
3 
3 
3 
3 
3 
3 
3 
3 
3 
3 
3 
3 
3 
3 
3 
3 
3 
3 
3 
3 
3 
3 
3 
3 
3 
3 
3 
3 
3 
3 
3 
3 
3 
3 
3 
3 
3 
3 
3 
3 
3 
3 
3 
3 
3 
3 
3 
3 
3 
3 
3 
3 
3 
3 
3 
3 
3 
3 
3 
3 
3 
3 
3 
3 
3 
3 
3 
3 
3 
3 
3 
3 
3 
3 
3 
3 
3 
3 
3 
3 
3 
3 
3 
3 
3 
3 
3 
3 
3 
3 
3 
3 
3 
3 
3 
3 
3 
3 
3 
3 
3 
3 
3 
3 
3 
3 
3 
3 
3 
3 
3 
3 
3 
3 
POINT_DATA 216
SCALARS GMDS_ID int 1
LOOKUP_TABLE default
0 1 2 3 4 5 6 7 8 9 10 11 12 13 14 15 16 17 18 19 20 21 22 23 24 25 26 27 28 29 30 31 32 33 34 35 36 37 38 39 40 41 42 43 44 45 46 47 48 49 50 51 52 53 54 55 56 57 58 59 60 61 62 63 64 65 66 67 68 69 70 71 72 73 74 75 76 77 78 79 80 81 82 83 84 85 86 87 88 89 90 91 92 93 94 95 96 97 98 99 100 101 102 103 104 105 106 107 108 109 110 111 112 113 114 115 116 117 118 119 120 121 122 123 124 125 126 127 128 129 130 131 132 133 134 135 136 137 138 139 140 141 142 143 144 145 146 147 148 149 150 151 152 153 154 155 156 157 158 159 160 161 162 163 164 165 166 167 168 169 170 171 172 173 174 175 176 177 178 179 180 181 182 183 184 185 186 187 188 189 190 191 192 193 194 195 196 197 198 199 200 201 202 203 204 205 206 207 208 209 210 211 212 213 214 215 
SCALARS geom_link_dim int 1
LOOKUP_TABLE default
1 1 1 1 1 1 1 1 2 2 2 2 2 2 2 2 3 3 2 2 3 3 2 2 2 3 4 3 3 2 3 4 3 2 3 2 2 3 1 3 3 2 3 4 3 2 3 2 3 2 3 4 1 3 2 3 3 4 2 3 4 3 3 2 4 1 4 3 2 3 3 3 3 2 3 2 3 3 3 2 3 1 3 2 3 3 1 3 2 3 3 4 4 3 2 3 3 4 3 2 4 4 4 1 3 3 4 1 3 3 3 3 2 2 3 4 1 3 3 3 2 1 3 3 2 4 1 4 4 3 3 4 4 3 3 3 3 2 2 3 4 4 3 3 3 2 4 3 3 2 4 3 2 3 4 3 4 4 4 3 3 4 1 2 3 3 3 2 3 4 2 3 4 1 3 4 3 3 4 3 3 4 3 2 2 3 4 3 3 4 3 4 4 3 4 2 3 1 3 3 4 3 2 3 4 1 3 3 4 4 3 1 4 4 3 1 
SCALARS geom_link_id int 1
LOOKUP_TABLE default
10 12 16 13 9 11 15 14 19 29 26 31 19 29 26 31 11 18 25 30 11 18 20 28 32 10 1 17 13 27 10 1 13 21 12 33 32 10 1 17 13 27 10 1 13 21 12 33 11 30 17 1 5 17 25 18 11 1 20 12 1 18 12 28 1 18 1 10 30 11 17 17 18 25 11 20 12 18 12 28 18 7 13 26 18 17 3 18 29 10 11 1 1 11 19 10 11 1 13 31 1 1 1 2 10 10 1 6 13 13 12 12 33 21 12 1 4 17 17 10 32 8 13 17 27 1 17 1 1 10 10 1 1 13 13 12 12 33 21 12 1 1 17 17 10 32 1 13 17 27 1 18 25 17 1 18 1 1 1 11 11 1 21 20 12 18 12 28 11 1 30 17 1 22 12 1 17 12 1 17 18 1 13 26 29 10 1 18 18 1 13 1 1 10 1 19 10 20 11 11 1 13 31 11 1 24 11 13 1 1 10 19 1 1 18 23 


CELL_DATA 540
SCALARS GMDS_ID int 1
LOOKUP_TABLE default
0 1 3 4 5 7 8 9 10 11 12 13 14 15 16 17 18 19 20 21 23 27 28 29 30 31 32 33 34 35 36 37 38 39 40 41 42 43 44 47 48 49 50 51 52 53 54 55 56 57 58 59 60 61 62 65 66 67 68 71 72 73 76 77 78 79 80 81 82 83 84 85 86 87 88 89 90 91 92 93 94 95 96 97 100 102 104 105 106 107 108 109 110 111 112 113 114 115 116 117 118 119 120 121 122 123 124 125 126 127 128 129 130 131 132 133 135 137 138 139 140 141 142 143 144 145 146 148 149 150 152 153 155 156 157 158 159 160 161 162 163 165 166 167 168 169 170 171 172 173 174 175 176 177 178 180 181 182 183 184 185 186 187 188 189 190 192 193 194 195 196 197 198 199 200 201 202 203 204 205 206 207 208 209 210 211 212 213 214 215 216 217 218 219 220 221 222 223 224 225 226 227 228 229 230 231 232 233 234 235 236 237 238 239 240 241 242 243 244 245 246 247 248 249 250 251 252 254 255 256 257 258 260 261 262 263 264 265 267 268 269 270 271 272 273 274 275 276 277 278 279 280 281 282 283 284 285 286 287 288 289 290 291 292 293 294 295 296 297 298 299 300 301 302 303 304 305 306 307 308 309 310 311 312 313 314 315 316 317 318 319 320 321 322 323 324 325 326 327 328 329 330 332 333 334 335 336 337 338 339 340 341 342 343 344 345 346 347 348 349 350 351 352 353 354 355 356 357 358 359 360 361 362 363 364 365 366 367 368 369 370 371 372 373 374 375 376 377 378 379 380 381 382 383 384 385 386 387 388 389 391 393 394 395 396 397 398 399 400 401 403 405 406 407 408 409 410 411 412 413 414 415 417 418 419 420 421 422 423 424 425 426 427 428 429 430 431 432 433 434 435 436 437 438 439 440 441 443 444 445 446 447 448 449 450 451 452 453 454 455 456 457 458 459 460 461 462 463 464 465 466 467 468 469 470 471 472 473 474 475 476 477 478 479 480 481 482 483 484 485 486 487 488 489 490 491 492 493 494 495 496 497 498 499 500 501 502 503 504 505 506 507 508 509 510 511 512 513 514 515 516 517 518 519 520 521 522 523 524 525 526 527 528 529 530 531 532 533 534 535 536 537 538 539 540 541 542 543 544 545 546 547 548 549 550 551 552 553 554 555 556 557 558 559 560 561 562 563 564 565 566 567 568 569 570 571 572 573 574 575 

SCALARS geom_link_dim int 1
LOOKUP_TABLE default
4 3 4 4 4 2 3 4 4 4 2 3 2 3 2 4 2 3 2 3 4 2 3 3 3 4 4 2 3 4 4 3 2 4 3 4 3 3 3 4 4 2 3 3 3 3 4 4 4 3 3 4 2 4 4 3 3 4 3 3 3 2 2 3 3 3 3 4 4 2 2 3 4 3 3 4 2 3 4 3 4 3 4 4 3 3 4 4 2 4 3 3 4 2 4 2 3 4 2 3 3 3 2 2 3 3 3 3 3 3 3 4 3 3 4 4 4 2 2 3 3 3 3 4 4 4 4 3 3 4 3 3 4 2 2 3 3 3 3 4 4 3 3 2 3 3 2 2 4 3 4 3 4 3 3 4 2 4 3 4 3 4 3 3 3 4 3 4 4 4 2 3 3 3 2 4 3 3 4 3 4 2 2 2 3 3 3 3 3 2 3 3 3 4 4 4 4 3 3 4 3 4 4 2 2 3 3 3 4 3 3 3 4 4 3 3 2 2 4 4 3 3 4 3 4 4 2 3 4 4 2 4 2 4 3 3 3 4 4 4 3 3 3 4 3 4 4 2 3 3 3 2 4 3 3 3 4 3 3 4 2 2 4 4 2 3 3 2 3 4 2 4 4 3 4 3 4 2 3 3 4 2 3 3 2 4 3 3 3 3 2 4 3 3 2 3 4 3 3 3 3 4 4 3 3 3 3 4 3 4 2 2 3 3 2 2 3 3 3 3 4 4 4 4 4 4 4 3 4 3 3 3 3 4 3 4 3 3 4 3 2 2 3 3 4 4 3 3 4 4 3 3 3 2 2 4 3 3 4 3 4 4 3 3 3 3 4 4 2 4 4 4 2 2 3 3 3 4 3 3 3 4 3 3 2 2 4 3 3 3 3 4 4 3 4 4 2 2 3 3 3 3 4 4 4 2 4 4 4 2 4 3 3 4 3 4 4 4 4 3 3 4 3 3 3 3 4 3 4 4 4 4 4 3 3 4 3 3 3 3 3 4 4 4 4 3 4 4 4 4 3 3 4 4 4 4 3 2 2 3 3 4 2 3 3 3 4 4 3 3 3 4 4 3 3 2 2 4 4 3 3 3 3 4 4 4 4 3 4 2 3 3 4 3 4 3 3 4 4 4 4 3 4 3 3 2 4 4 4 4 4 3 3 4 2 4 4 3 2 3 4 4 4 4 4 4 4 4 4 3 3 4 3 3 4 2 2 4 4 2 

SCALARS geom_link_id int 1
LOOKUP_TABLE default
1 10 1 1 1 32 17 1 1 1 19 13 29 13 26 1 31 18 16 17 1 10 18 17 10 1 1 30 18 1 1 10 32 1 18 1 13 10 18 1 1 26 10 10 18 11 1 1 1 18 13 1 27 1 1 10 17 1 17 17 13 30 21 11 12 11 10 1 1 33 30 13 1 10 13 1 27 18 1 11 1 10 1 1 18 13 1 1 21 1 12 10 1 26 1 33 13 1 1 13 17 17 25 25 18 13 10 17 18 13 10 1 11 11 1 1 1 20 20 12 12 11 12 1 1 1 1 18 18 1 12 12 1 28 28 12 18 17 13 1 1 17 17 29 10 13 25 26 1 10 1 17 1 11 18 1 20 1 12 1 11 1 12 18 13 1 12 1 1 1 28 18 12 18 17 1 18 18 1 10 1 26 29 29 10 10 10 17 18 14 18 11 11 1 1 1 1 11 11 1 18 1 1 19 19 10 10 10 1 11 11 11 1 1 13 13 31 31 1 1 13 11 1 11 1 1 11 10 1 1 9 1 2 1 13 17 13 1 1 1 12 18 12 1 12 1 1 33 12 13 18 21 1 12 10 12 1 18 18 1 25 8 1 1 7 18 17 25 17 1 29 1 1 10 1 10 1 32 17 10 1 15 18 13 5 1 13 17 17 17 27 1 17 13 3 17 1 13 13 13 13 1 1 12 12 12 12 1 12 1 33 33 12 13 21 21 12 12 10 12 1 1 1 1 1 1 1 10 1 17 17 17 17 1 18 1 10 10 1 10 32 32 17 10 1 1 13 13 1 1 13 17 17 27 27 1 17 13 1 17 1 1 11 11 11 11 1 1 12 1 1 1 20 20 12 12 11 1 12 18 18 1 12 12 28 28 1 12 18 11 11 1 1 11 1 1 30 30 17 17 11 17 1 1 1 36 1 1 1 22 1 12 12 1 12 1 1 1 1 17 17 1 17 12 12 12 1 12 1 1 1 1 1 17 17 1 17 17 18 13 13 1 1 1 1 13 1 1 1 1 10 10 1 1 1 1 10 19 19 10 10 1 13 11 11 10 1 1 11 11 11 1 1 13 13 31 31 1 1 13 11 11 11 1 1 1 1 11 1 24 11 11 1 11 1 13 13 1 1 1 1 13 1 13 11 35 1 1 1 1 1 10 10 1 34 1 1 10 23 10 1 1 1 1 1 1 1 1 1 18 18 1 18 18 1 4 18 1 1 6 

