# vtk DataFile Version 3.0
Generated by GMDS VTK Writer

ASCII
DATASET UNSTRUCTURED_GRID
POINTS 150 float
0 0 0
0 10 0
10 10 0
10 0 0
0 0 10
0 10 10
10 10 10
10 0 10
0 1 0
0 1 10
10 1 10
10 1 0
0 6 0
0 6 10
10 6 10
10 6 0
6 6 0
6 6 10
6 10 10
6 10 0
6 1 0
6 1 10
6 0 0
6 0 10
0 10 1
0 6 1
6 6 1
6 10 1
10 6 1
10 10 1
0 1 1
6 1 1
10 1 1
0 0 1
6 0 1
10 0 1
0 10 8
0 6 8
6 6 8
6 10 8
10 6 8
10 10 8
0 1 8
6 1 8
10 1 8
0 0 8
6 0 8
10 0 8
8 6 0
8 10 0
8 10 1
8 6 1
8 6 8
8 10 8
8 10 10
8 6 10
8 1 0
8 1 1
8 0 0
8 0 1
8 1 8
8 1 10
8 0 8
8 0 10
1 6 1
1 1 1
1 1 8
1 6 8
1 10 0
1 6 0
1 10 1
1 10 8
1 6 10
1 10 10
1 1 0
1 0 0
1 0 1
1 1 10
1 0 8
1 0 10
8 8 10
8 8 8
10 8 8
10 8 10
1 8 10
1 8 8
6 8 8
6 8 10
0 8 10
0 8 8
1 8 0
1 8 1
6 8 1
6 8 0
0 8 0
0 8 1
8 8 0
8 8 1
10 8 1
10 8 0
1 6 6
1 1 6
6 1 6
6 6 6
0 6 6
0 1 6
8 1 6
8 6 6
10 1 6
10 6 6
6 0 6
8 0 6
10 0 6
0 0 6
1 0 6
1 8 6
6 8 6
1 10 6
6 10 6
0 8 6
0 10 6
8 8 6
10 8 6
8 10 6
10 10 6
1 6 4
1 1 4
6 1 4
6 6 4
0 6 4
0 1 4
8 1 4
8 6 4
10 1 4
10 6 4
6 0 4
8 0 4
10 0 4
0 0 4
1 0 4
1 8 4
6 8 4
1 10 4
6 10 4
0 8 4
0 10 4
8 8 4
10 8 4
8 10 4
10 10 4

CELLS 365 1095
2 12 25
2 9 13
2 101 66
2 8 12
2 1 24
2 39 18
2 125 100
2 126 101
2 38 17
2 0 8
2 83 82
2 4 9
2 40 82
2 7 10
2 68 19
2 3 11
2 64 26
2 52 81
2 19 27
2 132 131
2 16 26
2 10 14
2 103 102
2 11 15
2 103 38
2 49 50
2 37 13
2 48 51
2 81 53
2 1 68
2 55 80
2 25 64
2 100 67
2 104 37
2 36 5
2 102 43
2 83 80
2 30 65
2 82 41
2 67 38
2 72 84
2 21 17
2 20 16
2 81 80
2 65 31
2 14 83
2 37 67
2 30 130
2 23 21
2 22 20
2 67 85
2 105 101
2 80 54
2 15 28
2 51 28
2 2 29
2 26 51
2 127 131
2 100 101
2 67 66
2 8 30
2 27 50
2 20 31
2 50 29
2 30 25
2 26 31
2 85 71
2 11 32
2 49 2
2 32 28
2 64 65
2 0 33
2 16 48
2 22 34
2 48 15
2 33 30
2 31 34
2 82 81
2 3 35
2 19 49
2 35 32
2 42 66
2 25 129
2 40 14
2 128 125
2 41 6
2 69 16
2 102 101
2 12 69
2 31 127
2 42 9
2 132 107
2 43 21
2 37 42
2 38 43
2 84 73
2 128 127
2 44 10
2 40 44
2 51 132
2 127 102
2 45 4
2 128 103
2 46 23
2 42 45
2 43 46
2 83 6
2 127 126
2 47 7
2 44 47
2 66 43
2 38 52
2 52 40
2 39 53
2 53 41
2 18 54
2 54 6
2 17 55
2 55 14
2 105 42
2 54 53
2 103 100
2 55 52
2 130 105
2 131 106
2 20 56
2 56 11
2 31 57
2 57 32
2 48 56
2 56 57
2 51 57
2 22 58
2 58 3
2 34 59
2 59 35
2 56 58
2 58 59
2 57 59
2 43 60
2 60 44
2 57 131
2 52 60
2 21 61
2 61 10
2 61 60
2 55 61
2 46 62
2 62 47
2 125 126
2 60 62
2 23 63
2 63 7
2 63 62
2 61 63
2 24 70
2 70 27
2 69 64
2 104 105
2 68 70
2 36 71
2 71 39
2 13 72
2 72 17
2 5 73
2 73 18
2 104 100
2 72 67
2 73 71
2 64 125
2 8 74
2 74 20
2 74 69
2 74 65
2 0 75
2 75 22
2 33 76
2 76 34
2 75 74
2 65 76
2 75 76
2 9 77
2 77 21
2 77 66
2 77 72
2 45 78
2 78 46
2 26 128
2 66 78
2 4 79
2 79 23
2 79 78
2 79 77
2 38 86
2 86 39
2 17 87
2 87 18
2 85 84
2 86 85
2 87 86
2 87 84
2 13 88
2 88 5
2 37 89
2 89 36
2 88 89
2 89 85
2 88 84
2 86 81
2 87 80
2 69 90
2 90 68
2 64 91
2 91 70
2 26 92
2 92 27
2 16 93
2 93 19
2 91 90
2 92 91
2 93 92
2 93 90
2 12 94
2 94 1
2 25 95
2 95 24
2 94 95
2 95 91
2 94 90
2 48 96
2 96 49
2 51 97
2 97 50
2 28 98
2 98 29
2 15 99
2 99 2
2 96 97
2 98 97
2 99 98
2 99 96
2 92 97
2 93 96
2 130 126
2 129 125
2 65 126
2 129 130
2 129 104
2 106 60
2 107 52
2 102 106
2 107 106
2 103 107
2 108 44
2 109 40
2 108 106
2 109 108
2 109 107
2 110 46
2 111 62
2 102 110
2 110 111
2 106 111
2 112 47
2 112 111
2 108 112
2 113 45
2 114 78
2 105 113
2 113 114
2 101 114
2 110 114
2 115 85
2 116 86
2 100 115
2 115 116
2 103 116
2 117 71
2 118 39
2 117 115
2 118 117
2 118 116
2 119 89
2 115 119
2 104 119
2 120 36
2 120 117
2 120 119
2 121 81
2 122 82
2 107 121
2 121 122
2 109 122
2 123 53
2 124 41
2 123 121
2 124 123
2 124 122
2 116 121
2 118 123
2 128 132
2 32 133
2 133 108
2 28 134
2 134 109
2 133 131
2 134 133
2 134 132
2 34 135
2 135 110
2 59 136
2 136 111
2 127 135
2 135 136
2 131 136
2 35 137
2 137 112
2 137 136
2 133 137
2 33 138
2 138 113
2 76 139
2 139 114
2 130 138
2 138 139
2 126 139
2 135 139
2 91 140
2 140 115
2 92 141
2 141 116
2 125 140
2 140 141
2 128 141
2 70 142
2 142 117
2 27 143
2 143 118
2 142 140
2 143 142
2 143 141
2 95 144
2 144 119
2 140 144
2 129 144
2 24 145
2 145 120
2 145 142
2 145 144
2 97 146
2 146 121
2 98 147
2 147 122
2 132 146
2 146 147
2 134 147
2 50 148
2 148 123
2 29 149
2 149 124
2 148 146
2 149 148
2 149 147
2 141 146
2 143 148

CELL_TYPES 365
3 
3 
3 
3 
3 
3 
3 
3 
3 
3 
3 
3 
3 
3 
3 
3 
3 
3 
3 
3 
3 
3 
3 
3 
3 
3 
3 
3 
3 
3 
3 
3 
3 
3 
3 
3 
3 
3 
3 
3 
3 
3 
3 
3 
3 
3 
3 
3 
3 
3 
3 
3 
3 
3 
3 
3 
3 
3 
3 
3 
3 
3 
3 
3 
3 
3 
3 
3 
3 
3 
3 
3 
3 
3 
3 
3 
3 
3 
3 
3 
3 
3 
3 
3 
3 
3 
3 
3 
3 
3 
3 
3 
3 
3 
3 
3 
3 
3 
3 
3 
3 
3 
3 
3 
3 
3 
3 
3 
3 
3 
3 
3 
3 
3 
3 
3 
3 
3 
3 
3 
3 
3 
3 
3 
3 
3 
3 
3 
3 
3 
3 
3 
3 
3 
3 
3 
3 
3 
3 
3 
3 
3 
3 
3 
3 
3 
3 
3 
3 
3 
3 
3 
3 
3 
3 
3 
3 
3 
3 
3 
3 
3 
3 
3 
3 
3 
3 
3 
3 
3 
3 
3 
3 
3 
3 
3 
3 
3 
3 
3 
3 
3 
3 
3 
3 
3 
3 
3 
3 
3 
3 
3 
3 
3 
3 
3 
3 
3 
3 
3 
3 
3 
3 
3 
3 
3 
3 
3 
3 
3 
3 
3 
3 
3 
3 
3 
3 
3 
3 
3 
3 
3 
3 
3 
3 
3 
3 
3 
3 
3 
3 
3 
3 
3 
3 
3 
3 
3 
3 
3 
3 
3 
3 
3 
3 
3 
3 
3 
3 
3 
3 
3 
3 
3 
3 
3 
3 
3 
3 
3 
3 
3 
3 
3 
3 
3 
3 
3 
3 
3 
3 
3 
3 
3 
3 
3 
3 
3 
3 
3 
3 
3 
3 
3 
3 
3 
3 
3 
3 
3 
3 
3 
3 
3 
3 
3 
3 
3 
3 
3 
3 
3 
3 
3 
3 
3 
3 
3 
3 
3 
3 
3 
3 
3 
3 
3 
3 
3 
3 
3 
3 
3 
3 
3 
3 
3 
3 
3 
3 
3 
3 
3 
3 
3 
3 
3 
3 
3 
3 
3 
3 
3 
3 
3 
3 
3 
3 
3 
3 
3 
3 
3 
3 
3 
3 
3 
3 
3 
3 
3 
3 
3 
3 
3 
3 
POINT_DATA 150
SCALARS GMDS_ID int 1
LOOKUP_TABLE default
0 1 2 3 4 5 6 7 8 9 10 11 12 13 14 15 16 17 18 19 20 21 22 23 24 25 26 27 28 29 30 31 32 33 34 35 36 37 38 39 40 41 42 43 44 45 46 47 48 49 50 51 52 53 54 55 56 57 58 59 60 61 62 63 64 65 66 67 68 69 70 71 72 73 74 75 76 77 78 79 80 81 82 83 84 85 86 87 88 89 90 91 92 93 94 95 96 97 98 99 100 101 102 103 104 105 106 107 108 109 110 111 112 113 114 115 116 117 118 119 120 121 122 123 124 125 126 127 128 129 130 131 132 133 134 135 136 137 138 139 140 141 142 143 144 145 146 147 148 149 
SCALARS geom_link_dim int 1
LOOKUP_TABLE default
1 1 1 1 1 1 1 1 2 2 2 2 2 2 2 2 3 3 2 2 3 3 2 2 2 3 0 3 3 2 3 0 3 2 3 2 2 3 1 3 3 2 3 0 3 2 3 2 3 2 3 0 1 3 2 3 3 0 2 3 0 3 3 2 0 0 0 0 2 3 3 3 3 2 3 2 3 3 3 2 3 1 3 2 3 0 1 3 2 3 3 0 0 3 2 3 3 0 3 2 0 0 0 1 3 3 0 1 3 3 3 3 2 2 3 0 1 3 3 3 2 1 3 3 2 0 0 0 0 3 3 0 0 3 3 3 3 2 2 3 0 0 3 3 3 2 0 3 3 2 
SCALARS geom_link_id int 1
LOOKUP_TABLE default
10 12 16 13 9 11 15 14 19 29 26 31 19 29 26 31 11 18 25 30 11 18 20 28 32 10 0 17 13 27 10 0 13 21 12 33 32 10 1 17 13 27 10 0 13 21 12 33 11 30 17 0 5 17 25 18 11 0 20 12 0 18 12 28 0 0 0 0 30 11 17 17 18 25 11 20 12 18 12 28 18 7 13 26 18 0 3 18 29 10 11 0 0 11 19 10 11 0 13 31 0 0 0 2 10 10 0 6 13 13 12 12 33 21 12 0 4 17 17 10 32 8 13 17 27 -1 -1 -1 -1 10 10 -1 -1 13 13 12 12 33 21 12 -1 -1 17 17 10 32 -1 13 17 27 


CELL_DATA 365
SCALARS GMDS_ID int 1
LOOKUP_TABLE default
1 2 4 6 7 8 9 10 11 12 13 14 15 16 17 18 19 20 21 22 23 24 25 26 27 29 30 31 32 33 34 35 36 37 38 39 40 41 42 43 44 45 46 47 48 49 50 51 52 53 55 56 57 58 59 60 61 62 63 64 65 66 67 68 69 70 71 72 73 74 75 76 77 78 79 80 81 82 83 84 85 86 87 88 89 90 91 92 93 94 95 96 97 98 99 100 101 102 103 104 105 106 107 108 109 110 111 112 113 114 115 116 117 118 119 120 121 122 123 124 125 126 127 128 129 130 131 132 133 134 135 136 137 138 139 140 141 142 143 144 145 146 147 148 149 150 151 152 153 154 155 156 157 158 159 160 161 163 164 165 166 167 168 169 170 171 172 173 175 176 177 178 179 180 181 182 183 184 185 186 187 188 189 190 191 192 193 194 195 196 197 198 199 200 201 202 203 204 205 206 207 208 209 210 211 212 213 214 215 216 217 218 219 220 221 222 223 224 225 226 227 228 229 230 231 232 233 234 235 236 237 238 239 240 241 242 243 244 245 246 247 248 249 250 251 252 253 254 255 257 258 259 260 262 264 265 266 267 269 271 272 273 274 276 277 278 280 282 283 284 285 286 288 290 291 292 293 295 297 298 299 300 302 303 304 306 307 308 310 312 313 314 315 317 319 320 321 322 323 324 325 326 327 328 329 330 331 332 333 334 335 336 337 338 339 340 341 342 343 344 345 346 347 348 349 350 351 352 353 354 355 356 357 358 359 360 361 362 363 364 365 366 367 368 369 370 371 372 373 374 375 376 377 378 379 380 381 382 383 384 385 386 387 388 389 

SCALARS geom_link_dim int 1
LOOKUP_TABLE default
0 2 0 2 2 0 0 0 0 2 0 2 0 2 2 2 0 2 0 0 0 2 0 2 2 0 0 0 0 2 0 0 0 0 2 0 0 0 0 0 0 0 0 0 0 2 0 0 0 0 0 0 0 0 0 2 0 0 0 0 0 0 0 0 0 0 0 0 2 0 0 2 0 0 0 0 0 0 2 2 0 0 0 0 0 2 0 0 0 0 0 0 0 0 0 0 0 0 0 0 0 2 0 0 0 0 2 0 2 0 0 2 0 0 0 2 2 0 0 0 0 0 0 0 0 0 0 0 0 0 0 0 2 2 0 0 0 0 0 0 0 0 0 0 0 0 0 0 0 0 0 2 2 0 0 0 0 0 0 0 0 0 0 0 2 2 0 0 0 0 0 0 0 0 2 2 0 0 0 0 0 0 0 0 0 0 0 0 0 2 2 0 0 2 0 0 0 0 0 0 0 2 2 0 0 0 0 0 2 0 0 0 0 0 0 0 0 0 0 0 0 0 2 2 0 0 0 0 0 0 0 0 0 0 0 2 2 0 0 0 0 0 0 0 0 0 0 0 0 2 0 0 2 0 0 0 0 0 0 0 0 0 0 2 0 0 2 0 0 0 0 0 0 2 0 0 2 0 0 0 0 0 0 0 0 2 0 0 2 0 2 0 0 0 2 0 0 0 2 0 0 0 0 0 0 0 0 0 0 0 0 0 0 0 0 2 2 0 0 2 2 0 0 0 0 0 0 0 0 0 0 0 0 0 0 0 0 0 0 0 0 0 0 0 0 2 2 0 0 0 0 0 0 0 0 0 0 0 2 2 0 0 0 0 0 

SCALARS geom_link_id int 1
LOOKUP_TABLE default
0 29 0 19 32 0 -1 -1 0 19 0 29 0 26 30 31 0 16 0 -1 0 26 0 31 10 0 0 0 0 30 0 0 0 0 32 0 0 0 0 0 0 0 0 0 0 26 0 -1 0 0 0 0 0 0 0 27 0 -1 0 0 0 0 0 0 0 0 0 0 30 0 0 21 0 0 0 0 0 0 33 30 0 0 -1 0 -1 27 0 0 0 -1 0 -1 0 0 0 0 -1 0 0 -1 -1 21 -1 0 0 0 26 -1 33 0 0 1 0 0 0 25 25 0 0 0 0 0 0 -1 -1 0 0 0 0 0 0 0 20 20 0 0 0 0 0 0 0 -1 0 0 0 0 0 0 0 -1 0 28 28 0 0 0 0 0 0 0 0 0 0 0 25 25 0 0 0 -1 0 0 0 0 20 20 0 0 0 0 0 0 0 0 0 0 0 -1 0 28 28 0 0 17 0 0 0 0 0 0 0 29 29 0 0 0 0 0 14 0 0 0 0 0 0 0 0 0 0 0 0 0 19 19 0 0 0 0 0 0 0 0 0 0 0 31 31 0 0 0 0 0 0 -1 -1 -1 -1 -1 0 9 0 0 2 0 0 0 0 0 0 0 0 0 0 33 0 0 21 0 0 0 0 0 0 8 0 0 7 0 0 0 0 0 0 0 0 32 0 0 15 0 5 0 0 0 27 0 0 0 3 0 -1 -1 -1 -1 -1 -1 -1 -1 -1 -1 -1 -1 -1 -1 -1 33 33 -1 -1 21 21 -1 -1 -1 -1 -1 -1 -1 -1 -1 -1 -1 -1 -1 -1 -1 -1 -1 -1 -1 -1 -1 -1 -1 -1 32 32 -1 -1 -1 -1 -1 -1 -1 -1 -1 -1 -1 27 27 -1 -1 -1 -1 -1 

