# vtk DataFile Version 3.0
Generated by GMDS VTK Writer

ASCII
DATASET UNSTRUCTURED_GRID
POINTS 216 float
0 0 0
0 10 0
10 10 0
10 0 0
0 0 10
0 10 10
10 10 10
10 0 10
6 0 0
6 10 0
6 10 10
6 0 10
0 0 8
0 10 8
6 10 8
6 0 8
10 10 8
10 0 8
0 0 6
0 10 6
6 10 6
6 0 6
10 10 6
10 0 6
0 6 0
6 6 0
6 6 6
0 6 6
0 6 8
6 6 8
6 6 10
0 6 10
10 6 8
10 6 10
10 6 0
10 6 6
8 6 0
8 6 6
8 10 6
8 10 0
8 0 0
8 0 6
8 0 10
8 0 8
8 6 8
8 6 10
8 10 8
8 10 10
0 4 0
6 4 0
6 4 6
0 4 6
6 4 10
6 4 8
8 4 8
8 4 10
8 4 0
8 4 6
10 4 6
10 4 0
0 4 8
0 4 10
10 4 8
10 4 10
8 10 4
8 6 4
10 6 4
10 10 4
6 10 4
6 6 4
0 6 4
0 10 4
0 4 4
6 4 4
0 0 4
6 0 4
10 0 4
8 0 4
8 4 4
10 4 4
1 10 4
1 6 4
1 6 6
1 10 6
1 10 0
1 6 0
1 6 10
1 6 8
1 10 8
1 10 10
1 0 10
1 0 8
1 4 8
1 4 10
1 0 6
1 4 6
1 4 0
1 4 4
1 0 0
1 0 4
1 8 8
1 8 10
6 8 10
6 8 8
0 8 8
0 8 10
1 8 0
1 8 4
6 8 4
6 8 0
8 8 4
8 8 6
6 8 6
8 8 0
0 8 0
0 8 4
8 8 10
8 8 8
10 8 10
10 8 8
10 8 4
10 8 6
10 8 0
1 8 6
0 8 6
4 8 4
4 8 0
4 10 0
4 10 4
4 6 4
4 6 0
4 8 10
4 8 8
4 10 8
4 10 10
4 6 10
4 6 8
4 0 10
4 0 8
4 4 8
4 4 10
4 0 6
4 4 6
4 6 6
4 4 0
4 4 4
4 0 0
4 0 4
4 8 6
4 10 6
6 1 10
6 1 8
8 1 8
8 1 10
4 1 10
4 1 8
1 1 10
1 1 8
10 1 8
10 1 10
6 1 6
8 1 6
10 1 6
10 1 0
8 1 0
8 1 4
10 1 4
6 1 0
6 1 4
0 1 10
0 1 8
0 1 6
1 1 6
0 1 0
0 1 4
1 1 4
1 1 0
4 1 6
4 1 4
4 1 0
4 6 1
4 8 1
6 8 1
6 6 1
1 6 1
1 8 1
10 4 1
8 4 1
8 6 1
10 6 1
4 10 1
6 10 1
6 4 1
1 10 1
0 6 1
0 4 1
1 4 1
8 8 1
8 10 1
0 8 1
0 10 1
10 8 1
10 10 1
4 4 1
10 0 1
8 0 1
8 1 1
10 1 1
6 0 1
6 1 1
0 0 1
1 0 1
1 1 1
0 1 1
4 0 1
4 1 1

CELLS 540 1620
2 9 39
2 20 38
2 25 36
2 13 5
2 26 37
2 12 4
2 71 80
2 156 93
2 18 12
2 90 156
2 85 106
2 104 100
2 87 100
2 130 180
2 30 102
2 187 78
2 103 14
2 188 187
2 39 2
2 20 14
2 36 34
2 19 13
2 133 14
2 14 10
2 85 130
2 15 11
2 43 152
2 101 89
2 101 131
2 103 102
2 81 129
2 16 6
2 69 26
2 17 7
2 49 25
2 37 35
2 59 186
2 24 85
2 21 15
2 19 83
2 86 101
2 107 125
2 150 151
2 27 82
2 22 16
2 151 53
2 23 17
2 51 27
2 38 22
2 31 105
2 68 20
2 128 125
2 28 104
2 83 80
2 104 13
2 88 133
2 129 125
2 66 65
2 132 103
2 65 37
2 128 68
2 127 126
2 29 103
2 30 29
2 102 10
2 31 28
2 66 35
2 84 127
2 127 9
2 50 26
2 48 24
2 33 32
2 29 26
2 28 27
2 64 38
2 125 108
2 126 109
2 1 84
2 11 150
2 151 155
2 32 35
2 8 40
2 40 3
2 21 41
2 41 23
2 67 64
2 106 126
2 11 42
2 42 7
2 15 43
2 43 17
2 29 44
2 44 32
2 30 45
2 45 33
2 42 43
2 67 22
2 44 45
2 14 46
2 46 16
2 10 47
2 47 6
2 130 126
2 47 46
2 80 128
2 43 41
2 37 44
2 46 38
2 25 183
2 52 30
2 184 180
2 53 29
2 185 107
2 54 44
2 183 69
2 55 45
2 52 53
2 53 54
2 55 54
2 52 55
2 184 81
2 56 36
2 184 185
2 57 37
2 183 182
2 58 35
2 183 180
2 59 34
2 82 81
2 58 57
2 70 81
2 59 56
2 50 57
2 49 56
2 126 181
2 60 28
2 180 129
2 61 31
2 151 152
2 101 100
2 61 60
2 53 50
2 60 51
2 182 181
2 62 32
2 181 180
2 63 33
2 62 54
2 63 62
2 63 55
2 57 54
2 62 58
2 131 102
2 69 65
2 68 64
2 70 27
2 71 19
2 105 5
2 100 88
2 129 69
2 72 51
2 73 50
2 104 105
2 69 73
2 70 72
2 74 18
2 75 21
2 105 101
2 36 188
2 189 66
2 76 23
2 77 41
2 78 57
2 79 58
2 76 77
2 106 185
2 78 79
2 85 184
2 65 78
2 66 79
2 75 77
2 73 78
2 130 25
2 31 86
2 153 152
2 28 87
2 150 153
2 13 88
2 153 55
2 5 89
2 42 153
2 87 86
2 100 132
2 89 88
2 82 87
2 88 83
2 4 90
2 137 154
2 12 91
2 155 139
2 60 92
2 138 155
2 61 93
2 154 140
2 90 91
2 181 125
2 92 93
2 109 182
2 87 92
2 86 93
2 18 94
2 154 155
2 51 95
2 150 154
2 91 94
2 186 79
2 95 92
2 82 95
2 48 96
2 156 157
2 72 97
2 91 157
2 85 96
2 81 97
2 95 97
2 0 98
2 157 155
2 74 99
2 157 92
2 189 188
2 187 186
2 94 99
2 106 84
2 81 107
2 107 80
2 69 108
2 108 68
2 25 109
2 109 9
2 15 151
2 150 52
2 65 110
2 110 64
2 37 111
2 111 38
2 26 112
2 112 20
2 110 108
2 111 110
2 112 111
2 112 108
2 36 113
2 113 39
2 109 113
2 24 114
2 114 1
2 70 115
2 115 71
2 115 107
2 114 106
2 45 116
2 116 47
2 44 117
2 117 46
2 102 116
2 117 116
2 103 117
2 33 118
2 118 6
2 32 119
2 119 16
2 118 116
2 119 118
2 119 117
2 66 120
2 120 67
2 35 121
2 121 22
2 110 120
2 121 111
2 121 120
2 34 122
2 122 2
2 122 113
2 112 103
2 111 117
2 119 121
2 82 123
2 123 83
2 107 123
2 152 54
2 27 124
2 124 19
2 124 115
2 124 123
2 124 104
2 123 100
2 89 134
2 134 10
2 132 131
2 133 132
2 133 134
2 134 131
2 86 135
2 135 30
2 87 136
2 136 29
2 135 136
2 136 132
2 135 131
2 90 137
2 137 11
2 91 138
2 138 15
2 92 139
2 139 53
2 93 140
2 140 52
2 137 138
2 185 181
2 139 140
2 182 108
2 136 139
2 135 140
2 94 141
2 141 21
2 95 142
2 142 50
2 138 141
2 56 187
2 139 142
2 82 143
2 143 26
2 143 142
2 143 136
2 96 144
2 144 49
2 97 145
2 145 73
2 130 144
2 129 145
2 142 145
2 129 143
2 98 146
2 146 8
2 99 147
2 147 75
2 34 189
2 188 65
2 141 147
2 123 148
2 148 112
2 143 148
2 125 148
2 83 149
2 149 20
2 149 148
2 128 149
2 132 148
2 149 133
2 156 154
2 17 158
2 158 62
2 7 159
2 159 63
2 158 152
2 159 158
2 159 153
2 21 160
2 160 50
2 41 161
2 161 57
2 151 160
2 160 161
2 161 152
2 23 162
2 162 58
2 162 161
2 158 162
2 3 163
2 163 59
2 40 164
2 164 56
2 77 165
2 165 78
2 76 166
2 166 79
2 163 164
2 166 165
2 161 165
2 162 166
2 8 167
2 167 49
2 75 168
2 168 73
2 167 164
2 168 165
2 160 168
2 4 169
2 169 61
2 12 170
2 170 60
2 169 170
2 170 157
2 169 156
2 18 171
2 171 51
2 94 172
2 172 95
2 170 171
2 171 172
2 157 172
2 0 173
2 173 48
2 74 174
2 174 72
2 99 175
2 175 97
2 98 176
2 176 96
2 174 175
2 173 176
2 171 174
2 172 175
2 141 177
2 177 142
2 172 177
2 155 177
2 160 177
2 147 178
2 178 145
2 146 179
2 179 144
2 175 178
2 176 179
2 168 178
2 167 179
2 177 178
2 189 186
2 127 190
2 190 128
2 9 191
2 191 68
2 181 190
2 191 182
2 191 190
2 49 192
2 192 73
2 192 187
2 183 188
2 183 192
2 84 193
2 193 80
2 193 185
2 193 190
2 24 194
2 194 70
2 48 195
2 195 72
2 96 196
2 196 97
2 194 195
2 195 196
2 184 196
2 194 184
2 113 197
2 197 110
2 188 197
2 182 197
2 39 198
2 198 64
2 198 197
2 191 198
2 114 199
2 199 115
2 185 199
2 194 199
2 1 200
2 200 71
2 200 193
2 200 199
2 122 201
2 201 120
2 197 201
2 189 201
2 2 202
2 202 67
2 202 198
2 202 201
2 144 203
2 203 145
2 196 203
2 180 203
2 192 203
2 3 204
2 204 76
2 40 205
2 205 77
2 164 206
2 206 165
2 163 207
2 207 166
2 204 205
2 205 206
2 207 206
2 204 207
2 187 206
2 186 207
2 8 208
2 208 75
2 167 209
2 209 168
2 208 205
2 206 209
2 208 209
2 192 209
2 0 210
2 210 74
2 98 211
2 211 99
2 176 212
2 212 175
2 173 213
2 213 174
2 210 211
2 211 212
2 213 212
2 210 213
2 196 212
2 195 213
2 146 214
2 214 147
2 179 215
2 215 178
2 211 214
2 214 215
2 212 215
2 203 215
2 208 214
2 209 215

CELL_TYPES 540
3 
3 
3 
3 
3 
3 
3 
3 
3 
3 
3 
3 
3 
3 
3 
3 
3 
3 
3 
3 
3 
3 
3 
3 
3 
3 
3 
3 
3 
3 
3 
3 
3 
3 
3 
3 
3 
3 
3 
3 
3 
3 
3 
3 
3 
3 
3 
3 
3 
3 
3 
3 
3 
3 
3 
3 
3 
3 
3 
3 
3 
3 
3 
3 
3 
3 
3 
3 
3 
3 
3 
3 
3 
3 
3 
3 
3 
3 
3 
3 
3 
3 
3 
3 
3 
3 
3 
3 
3 
3 
3 
3 
3 
3 
3 
3 
3 
3 
3 
3 
3 
3 
3 
3 
3 
3 
3 
3 
3 
3 
3 
3 
3 
3 
3 
3 
3 
3 
3 
3 
3 
3 
3 
3 
3 
3 
3 
3 
3 
3 
3 
3 
3 
3 
3 
3 
3 
3 
3 
3 
3 
3 
3 
3 
3 
3 
3 
3 
3 
3 
3 
3 
3 
3 
3 
3 
3 
3 
3 
3 
3 
3 
3 
3 
3 
3 
3 
3 
3 
3 
3 
3 
3 
3 
3 
3 
3 
3 
3 
3 
3 
3 
3 
3 
3 
3 
3 
3 
3 
3 
3 
3 
3 
3 
3 
3 
3 
3 
3 
3 
3 
3 
3 
3 
3 
3 
3 
3 
3 
3 
3 
3 
3 
3 
3 
3 
3 
3 
3 
3 
3 
3 
3 
3 
3 
3 
3 
3 
3 
3 
3 
3 
3 
3 
3 
3 
3 
3 
3 
3 
3 
3 
3 
3 
3 
3 
3 
3 
3 
3 
3 
3 
3 
3 
3 
3 
3 
3 
3 
3 
3 
3 
3 
3 
3 
3 
3 
3 
3 
3 
3 
3 
3 
3 
3 
3 
3 
3 
3 
3 
3 
3 
3 
3 
3 
3 
3 
3 
3 
3 
3 
3 
3 
3 
3 
3 
3 
3 
3 
3 
3 
3 
3 
3 
3 
3 
3 
3 
3 
3 
3 
3 
3 
3 
3 
3 
3 
3 
3 
3 
3 
3 
3 
3 
3 
3 
3 
3 
3 
3 
3 
3 
3 
3 
3 
3 
3 
3 
3 
3 
3 
3 
3 
3 
3 
3 
3 
3 
3 
3 
3 
3 
3 
3 
3 
3 
3 
3 
3 
3 
3 
3 
3 
3 
3 
3 
3 
3 
3 
3 
3 
3 
3 
3 
3 
3 
3 
3 
3 
3 
3 
3 
3 
3 
3 
3 
3 
3 
3 
3 
3 
3 
3 
3 
3 
3 
3 
3 
3 
3 
3 
3 
3 
3 
3 
3 
3 
3 
3 
3 
3 
3 
3 
3 
3 
3 
3 
3 
3 
3 
3 
3 
3 
3 
3 
3 
3 
3 
3 
3 
3 
3 
3 
3 
3 
3 
3 
3 
3 
3 
3 
3 
3 
3 
3 
3 
3 
3 
3 
3 
3 
3 
3 
3 
3 
3 
3 
3 
3 
3 
3 
3 
3 
3 
3 
3 
3 
3 
3 
3 
3 
3 
3 
3 
3 
3 
3 
3 
3 
3 
3 
3 
3 
3 
3 
3 
3 
3 
3 
3 
3 
3 
3 
3 
3 
3 
3 
3 
3 
3 
3 
3 
3 
3 
3 
3 
3 
3 
3 
3 
3 
3 
3 
3 
3 
3 
3 
3 
3 
3 
3 
3 
3 
3 
3 
3 
3 
3 
3 
3 
3 
3 
3 
3 
3 
3 
3 
3 
3 
3 
POINT_DATA 216
SCALARS GMDS_ID int 1
LOOKUP_TABLE default
0 1 2 3 4 5 6 7 8 9 10 11 12 13 14 15 16 17 18 19 20 21 22 23 24 25 26 27 28 29 30 31 32 33 34 35 36 37 38 39 40 41 42 43 44 45 46 47 48 49 50 51 52 53 54 55 56 57 58 59 60 61 62 63 64 65 66 67 68 69 70 71 72 73 74 75 76 77 78 79 80 81 82 83 84 85 86 87 88 89 90 91 92 93 94 95 96 97 98 99 100 101 102 103 104 105 106 107 108 109 110 111 112 113 114 115 116 117 118 119 120 121 122 123 124 125 126 127 128 129 130 131 132 133 134 135 136 137 138 139 140 141 142 143 144 145 146 147 148 149 150 151 152 153 154 155 156 157 158 159 160 161 162 163 164 165 166 167 168 169 170 171 172 173 174 175 176 177 178 179 180 181 182 183 184 185 186 187 188 189 190 191 192 193 194 195 196 197 198 199 200 201 202 203 204 205 206 207 208 209 210 211 212 213 214 215 
SCALARS geom_link_dim int 1
LOOKUP_TABLE default
1 1 1 1 1 1 1 1 2 2 2 2 2 2 3 3 2 2 2 2 3 3 2 2 2 3 1 3 3 1 3 2 3 2 2 3 3 1 3 2 2 3 2 3 1 3 3 2 2 3 0 3 3 0 0 3 3 0 3 2 3 2 3 2 3 0 3 2 3 0 3 2 3 0 2 3 2 3 0 3 3 0 0 3 2 3 3 0 3 2 2 3 0 3 3 0 3 0 2 3 0 3 3 1 3 2 3 0 0 3 0 1 1 3 2 3 3 1 2 3 3 3 2 0 3 0 3 2 3 0 3 3 0 3 2 3 0 2 3 0 3 3 0 0 3 0 2 3 0 3 3 0 0 3 3 0 3 0 3 2 0 0 3 2 3 0 3 3 0 2 3 3 0 2 3 0 3 0 0 3 0 0 0 0 0 0 3 0 0 3 3 3 0 3 3 3 0 0 3 3 2 3 2 0 2 3 0 3 3 0 2 3 0 3 3 0 
SCALARS geom_link_id int 1
LOOKUP_TABLE default
10 12 16 13 9 11 15 14 20 30 25 28 21 32 17 12 27 33 21 32 17 12 27 33 19 11 2 10 10 1 18 29 13 26 31 13 11 6 17 30 20 12 28 12 5 18 17 25 19 11 0 10 18 0 0 18 11 0 13 31 10 29 13 26 17 0 13 27 17 0 10 32 10 0 21 12 33 12 0 13 17 0 0 17 30 11 18 0 17 25 28 12 0 18 12 0 11 0 20 12 0 18 18 3 10 29 11 0 0 11 0 8 4 11 19 10 18 7 26 13 13 13 31 0 10 0 11 30 17 0 11 18 0 17 25 18 0 28 12 0 18 12 0 0 11 0 20 12 0 17 18 0 0 18 18 0 18 0 13 26 0 0 13 31 11 0 13 11 0 29 10 10 0 19 10 0 11 0 0 11 -1 -1 -1 -1 -1 -1 13 -1 -1 13 17 17 -1 17 10 10 -1 -1 17 10 32 13 27 -1 33 12 -1 13 12 -1 21 12 -1 10 12 -1 


CELL_DATA 540
SCALARS GMDS_ID int 1
LOOKUP_TABLE default
0 2 4 5 6 7 8 9 10 11 12 13 14 15 16 17 18 19 20 21 22 23 24 25 26 27 28 29 30 31 32 33 34 35 36 37 38 39 40 41 42 43 44 45 46 47 48 49 50 51 52 53 54 55 56 57 58 60 61 62 63 65 66 67 68 69 70 71 73 74 75 76 77 78 79 80 82 83 84 85 86 87 88 89 90 92 93 94 95 96 97 98 99 100 101 102 103 104 106 107 108 109 110 111 112 113 114 115 116 117 118 119 120 121 122 123 124 125 126 127 128 129 130 131 132 133 134 135 136 137 138 139 140 141 142 143 144 145 146 147 148 149 150 151 152 153 154 155 156 157 158 159 160 161 162 164 166 167 168 169 171 173 174 175 176 178 180 181 182 183 185 187 189 191 192 193 194 195 196 197 198 199 200 203 204 205 206 207 208 209 210 211 212 213 215 216 217 218 219 220 221 222 223 224 225 226 227 228 229 230 231 232 233 234 235 236 237 238 239 240 241 242 243 245 246 247 248 249 250 251 252 254 255 256 257 258 259 260 261 263 265 266 267 268 269 270 271 272 273 274 275 276 277 278 280 281 282 283 285 286 287 288 289 290 291 292 293 294 295 296 297 298 299 300 301 302 303 304 305 306 307 308 309 310 312 313 314 315 316 317 318 319 320 321 322 323 324 325 326 327 328 329 330 331 332 333 334 335 336 337 338 339 340 341 342 343 344 345 346 347 348 349 350 351 352 353 354 355 356 357 358 359 360 361 362 363 364 365 366 367 369 370 371 372 373 374 375 376 377 379 380 381 382 383 384 385 386 387 388 389 390 391 392 393 394 395 396 397 398 399 400 401 402 403 404 405 406 407 408 409 410 411 412 413 414 415 416 417 419 421 422 423 424 425 426 427 428 430 431 432 433 434 435 436 437 438 439 440 441 442 443 444 445 446 447 448 449 450 451 452 454 456 457 458 459 460 461 462 463 464 465 466 467 468 470 471 472 473 474 475 476 477 478 479 480 481 482 483 484 485 486 487 488 489 490 491 492 493 494 495 496 497 498 499 500 501 502 503 504 505 506 507 508 509 510 511 512 513 514 515 516 517 518 519 520 521 522 523 524 525 526 527 528 529 530 531 532 533 534 535 536 537 538 539 540 541 542 543 544 545 546 547 548 549 550 551 552 553 554 555 556 557 558 559 560 561 562 563 564 565 566 567 568 569 570 571 572 573 574 575 

SCALARS geom_link_dim int 1
LOOKUP_TABLE default
2 0 0 2 2 2 0 0 2 0 0 0 0 0 0 0 0 0 2 0 0 2 0 0 0 0 0 0 0 0 0 2 0 2 0 0 0 0 0 0 0 0 0 0 2 0 2 0 0 2 0 0 0 0 0 0 0 0 0 0 0 0 2 0 0 0 0 2 2 0 2 0 2 0 0 0 0 2 0 0 0 2 2 0 0 0 0 2 2 0 0 2 0 0 0 0 2 0 0 0 2 2 0 0 0 0 2 0 0 0 0 0 0 0 0 0 0 0 0 0 0 0 0 0 0 0 0 2 0 0 0 0 0 0 0 0 0 2 0 0 0 0 0 0 0 0 2 0 0 0 0 0 0 0 0 0 2 2 0 0 0 0 0 0 0 2 0 0 0 0 2 0 0 0 0 0 0 0 0 0 0 0 0 0 0 0 0 0 0 2 0 0 0 0 0 0 2 0 0 0 0 0 0 0 0 0 0 0 0 0 0 0 0 0 0 0 0 0 0 0 0 0 0 0 0 2 0 0 0 0 0 0 0 0 0 0 0 0 0 0 0 0 0 2 0 2 0 0 0 2 0 0 0 0 2 2 0 0 0 0 0 0 2 0 0 0 2 2 2 0 0 0 0 0 0 0 0 0 0 0 0 2 2 0 2 2 0 0 0 0 0 0 0 0 0 0 0 2 2 0 0 0 0 0 0 0 0 0 0 0 2 2 0 0 0 0 0 0 0 0 0 0 0 0 0 0 0 0 0 0 0 0 0 0 0 0 0 0 0 0 0 0 0 2 2 0 0 0 0 0 0 0 0 0 0 0 0 0 0 0 0 0 0 2 2 0 0 0 0 0 0 0 0 0 0 0 0 0 0 2 2 0 0 0 0 0 0 0 0 0 0 0 0 0 0 0 0 0 2 2 0 0 0 0 0 0 0 0 0 0 0 0 2 2 0 0 0 0 0 0 0 0 0 0 0 0 0 0 0 0 0 0 0 0 0 0 0 0 0 0 0 0 0 0 0 0 0 0 0 0 0 0 0 0 0 0 0 0 0 0 0 0 0 0 0 0 0 0 0 0 0 0 0 0 0 0 0 2 2 0 0 0 0 0 0 2 2 0 0 0 0 0 0 0 2 2 0 0 0 0 0 0 0 0 0 0 0 0 0 0 0 0 0 0 0 0 2 2 0 0 0 0 0 0 0 0 0 0 0 0 0 0 0 0 0 0 0 0 0 0 

SCALARS geom_link_id int 1
LOOKUP_TABLE default
30 0 0 32 2 21 0 0 21 0 0 0 0 -1 0 -1 0 -1 30 0 0 32 0 0 0 0 0 0 0 0 0 27 0 33 0 0 -1 0 0 0 0 0 0 0 27 0 33 0 0 29 0 0 0 0 0 0 0 0 0 0 0 0 17 0 0 0 0 30 30 0 19 0 10 0 0 0 0 30 0 0 0 20 20 0 0 0 0 28 28 0 0 1 0 0 0 0 27 0 0 0 25 25 0 0 0 0 9 0 -1 0 -1 0 -1 0 -1 0 0 0 0 0 -1 0 -1 0 -1 0 -1 31 0 0 0 0 0 0 -1 0 -1 29 0 0 0 0 0 -1 0 -1 26 0 0 0 0 0 0 0 0 0 32 29 0 0 0 0 0 0 0 21 0 0 -1 -1 33 0 0 0 0 -1 0 -1 0 0 0 0 0 0 0 0 0 0 0 25 0 0 0 0 0 0 28 0 0 0 0 0 0 0 0 -1 0 -1 0 0 0 0 0 0 0 -1 0 0 0 0 0 0 0 0 0 20 0 0 0 -1 -1 0 0 0 0 0 0 0 0 0 0 0 0 5 0 7 0 0 0 3 0 0 0 0 19 19 0 0 0 0 0 0 16 0 0 0 14 26 26 0 0 0 0 0 0 0 0 0 0 0 0 31 31 0 8 15 0 0 0 0 0 0 0 0 0 0 0 25 25 0 0 0 0 0 0 0 0 0 0 0 28 28 0 0 0 0 0 0 0 -1 0 -1 0 0 0 0 0 0 0 -1 0 0 0 0 0 0 0 0 0 0 0 0 0 20 20 0 0 -1 -1 0 0 0 0 0 0 0 0 0 0 0 0 0 0 26 26 0 0 0 0 0 0 0 0 0 0 0 0 0 0 31 31 0 0 0 0 0 0 0 0 0 0 0 0 0 0 0 0 0 29 29 0 0 0 0 0 0 0 0 0 0 0 0 19 19 0 0 0 0 0 0 0 0 0 0 0 0 0 0 0 0 0 0 0 0 0 0 0 0 -1 -1 -1 -1 -1 -1 -1 -1 -1 -1 -1 -1 -1 -1 -1 -1 -1 -1 -1 -1 -1 -1 -1 -1 -1 -1 -1 -1 -1 -1 -1 -1 -1 -1 -1 -1 -1 -1 -1 32 32 -1 -1 -1 -1 -1 -1 27 27 -1 -1 -1 -1 -1 -1 -1 33 33 -1 -1 -1 -1 -1 -1 -1 -1 -1 -1 -1 -1 -1 -1 -1 -1 -1 -1 -1 -1 21 21 -1 -1 -1 -1 -1 -1 -1 -1 -1 -1 -1 -1 -1 -1 -1 -1 -1 -1 -1 -1 -1 -1 

