# vtk DataFile Version 3.0
Generated by GMDS VTK Writer

ASCII
DATASET UNSTRUCTURED_GRID
POINTS 48 float
0 0 0
0 10 0
10 10 0
10 0 0
0 0 10
0 10 10
10 10 10
10 0 10
6 0 0
6 10 0
6 10 10
6 0 10
4 0 0
4 10 0
4 10 10
4 0 10
4 0 8
4 10 8
6 10 8
6 0 8
0 0 8
0 10 8
10 10 8
10 0 8
6 1 0
4 1 0
4 1 8
6 1 8
4 1 10
6 1 10
0 1 0
0 1 8
0 1 10
10 1 0
10 1 8
10 1 10
6 6 0
4 6 0
4 6 8
6 6 8
4 6 10
6 6 10
0 6 0
0 6 8
0 6 10
10 6 0
10 6 8
10 6 10

CELLS 104 312
2 36 39
2 1 13
2 24 36
2 0 12
2 37 13
2 13 9
2 25 37
2 12 8
2 8 24
2 16 26
2 17 14
2 8 3
2 13 17
2 9 2
2 12 16
2 10 6
2 16 15
2 11 7
2 27 39
2 26 38
2 19 27
2 5 14
2 14 10
2 4 15
2 15 11
2 38 39
2 38 17
2 12 25
2 9 18
2 18 10
2 8 19
2 19 11
2 36 37
2 18 17
2 39 18
2 19 16
2 0 20
2 20 4
2 1 21
2 21 5
2 37 38
2 21 17
2 20 16
2 2 22
2 22 6
2 3 23
2 23 7
2 22 18
2 36 9
2 23 19
2 24 25
2 25 26
2 26 27
2 24 27
2 15 28
2 11 29
2 28 26
2 29 28
2 29 27
2 0 30
2 20 31
2 30 25
2 26 31
2 30 31
2 4 32
2 32 28
2 32 31
2 3 33
2 23 34
2 33 24
2 27 34
2 33 34
2 7 35
2 35 29
2 35 34
2 28 40
2 40 14
2 29 41
2 41 10
2 38 40
2 40 41
2 39 41
2 30 42
2 42 1
2 31 43
2 43 21
2 37 42
2 38 43
2 42 43
2 32 44
2 44 5
2 40 44
2 43 44
2 33 45
2 45 2
2 34 46
2 46 22
2 36 45
2 39 46
2 45 46
2 35 47
2 47 6
2 41 47
2 46 47

CELL_TYPES 104
3 
3 
3 
3 
3 
3 
3 
3 
3 
3 
3 
3 
3 
3 
3 
3 
3 
3 
3 
3 
3 
3 
3 
3 
3 
3 
3 
3 
3 
3 
3 
3 
3 
3 
3 
3 
3 
3 
3 
3 
3 
3 
3 
3 
3 
3 
3 
3 
3 
3 
3 
3 
3 
3 
3 
3 
3 
3 
3 
3 
3 
3 
3 
3 
3 
3 
3 
3 
3 
3 
3 
3 
3 
3 
3 
3 
3 
3 
3 
3 
3 
3 
3 
3 
3 
3 
3 
3 
3 
3 
3 
3 
3 
3 
3 
3 
3 
3 
3 
3 
3 
3 
3 
3 
POINT_DATA 48
SCALARS GMDS_ID int 1
LOOKUP_TABLE default
0 1 2 3 4 5 6 7 8 9 10 11 12 13 14 15 16 17 18 19 20 21 22 23 24 25 26 27 28 29 30 31 32 33 34 35 36 37 38 39 40 41 42 43 44 45 46 47 
SCALARS geom_link_dim_0 int 1
LOOKUP_TABLE default
0 0 0 0 0 0 0 0 0 0 0 0 0 0 0 0 0 0 0 0 0 0 0 0 0 0 0 0 0 0 0 0 0 0 0 0 0 0 0 0 0 0 0 0 0 0 0 0 
SCALARS geom_link_id_0 int 1
LOOKUP_TABLE default
0 0 0 0 0 0 0 0 0 0 0 0 0 0 0 0 0 0 0 0 0 0 0 0 0 0 0 0 0 0 0 0 0 0 0 0 0 0 0 0 0 0 0 0 0 0 0 0 


CELL_DATA 104
SCALARS GMDS_ID int 1
LOOKUP_TABLE default
0 1 2 3 4 5 6 7 9 11 12 13 14 15 16 17 18 19 20 22 23 24 25 26 27 28 30 31 32 33 34 35 36 37 38 39 40 41 42 43 44 45 46 47 48 49 50 51 52 53 54 55 56 57 58 60 62 63 64 65 67 69 70 71 72 74 75 76 78 80 81 82 83 85 86 87 88 89 90 91 92 93 94 95 96 97 98 99 100 101 102 103 104 105 106 107 108 109 110 111 112 113 114 115 

SCALARS geom_link_dim_0 int 1
LOOKUP_TABLE default
0 0 0 0 0 0 0 0 0 0 0 0 0 0 0 0 0 0 0 0 0 0 0 0 0 0 0 0 0 0 0 0 0 0 0 0 0 0 0 0 0 0 0 0 0 0 0 0 0 0 0 0 0 0 0 0 0 0 0 0 0 0 0 0 0 0 0 0 0 0 0 0 0 0 0 0 0 0 0 0 0 0 0 0 0 0 0 0 0 0 0 0 0 0 0 0 0 0 0 0 0 0 0 0 

SCALARS geom_link_id_0 int 1
LOOKUP_TABLE default
0 0 0 0 0 0 0 0 0 0 0 0 0 0 0 0 0 0 0 0 0 0 0 0 0 0 0 0 0 0 0 0 0 0 0 0 0 0 0 0 0 0 0 0 0 0 0 0 0 0 0 0 0 0 0 0 0 0 0 0 0 0 0 0 0 0 0 0 0 0 0 0 0 0 0 0 0 0 0 0 0 0 0 0 0 0 0 0 0 0 0 0 0 0 0 0 0 0 0 0 0 0 0 0 

