# vtk DataFile Version 3.0
Generated by GMDS VTK Writer

ASCII
DATASET UNSTRUCTURED_GRID
POINTS 75 float
0 0 0
0 10 0
10 10 0
10 0 0
0 0 10
0 10 10
10 10 10
10 0 10
6 0 0
6 10 0
6 10 10
6 0 10
4 0 0
4 10 0
4 10 10
4 0 10
4 0 8
4 10 8
6 10 8
6 0 8
0 0 8
0 10 8
10 10 8
10 0 8
6 1 0
4 1 0
4 1 8
6 1 8
4 1 10
6 1 10
0 1 0
0 1 8
0 1 10
10 1 0
10 1 8
10 1 10
6 6 0
4 6 0
4 6 8
6 6 8
4 6 10
6 6 10
0 6 0
0 6 8
0 6 10
10 6 0
10 6 8
10 6 10
6 8 8
4 8 8
4 8 10
6 8 10
6 8 0
4 8 0
0 8 0
0 8 8
0 8 10
10 8 0
10 8 8
10 8 10
8 0 0
8 0 8
8 1 8
8 1 0
8 1 10
8 6 10
8 6 8
8 8 0
8 8 8
8 10 8
8 10 0
8 6 0
8 0 10
8 8 10
8 10 10

CELLS 128 640
4 15 16 26 28 
4 24 25 26 27 
4 37 42 54 53 
4 8 19 27 24 
4 25 30 42 37 
4 39 38 40 41 
4 18 17 14 10 
4 62 66 46 34 
4 9 13 17 18 
4 52 53 49 48 
4 27 29 41 39 
4 27 39 66 62 
4 28 29 41 40 
4 16 19 27 26 
4 52 48 18 9 
4 66 65 47 46 
4 26 28 40 38 
4 12 16 26 25 
4 36 39 48 52 
4 8 12 25 24 
4 36 37 38 39 
4 39 41 65 66 
4 8 12 16 19 
4 19 16 15 11 
4 24 27 39 36 
4 64 65 47 35 
4 26 27 39 38 
4 1 13 17 21 
4 21 17 14 5 
4 0 12 16 20 
4 20 16 15 4 
4 29 41 65 64 
4 25 26 38 37 
4 62 64 35 34 
4 24 25 37 36 
4 53 49 17 13 
4 11 15 28 29 
4 37 38 49 53 
4 11 19 27 29 
4 52 53 13 9 
4 27 26 28 29 
4 0 12 25 30 
4 36 37 53 52 
4 16 20 31 26 
4 48 49 50 51 
4 0 20 31 30 
4 48 51 10 18 
4 30 25 26 31 
4 4 15 28 32 
4 39 41 51 48 
4 4 20 31 32 
4 50 51 10 14 
4 31 26 28 32 
4 40 41 51 50 
4 49 50 14 17 
4 3 23 34 33 
4 38 40 50 49 
4 49 48 18 17 
4 7 23 34 35 
4 38 39 48 49 
4 27 29 64 62 
4 26 31 43 38 
4 60 61 62 63 
4 30 31 43 42 
4 60 63 33 3 
4 42 37 38 43 
4 28 32 44 40 
4 8 24 63 60 
4 31 32 44 43 
4 63 62 34 33 
4 43 38 40 44 
4 24 27 62 63 
4 61 62 34 23 
4 33 34 46 45 
4 19 27 62 61 
4 60 61 23 3 
4 34 35 47 46 
4 8 19 61 60 
4 53 54 1 13 
4 38 43 55 49 
4 49 55 21 17 
4 42 43 55 54 
4 54 55 21 1 
4 54 53 49 55 
4 40 44 56 50 
4 50 56 5 14 
4 43 44 56 55 
4 55 56 5 21 
4 55 49 50 56 
4 45 46 58 57 
4 57 58 22 2 
4 46 47 59 58 
4 58 59 6 22 
4 62 64 65 66 
4 48 52 67 68 
4 68 67 57 58 
4 18 48 68 69 
4 69 68 58 22 
4 9 18 69 70 
4 70 69 22 2 
4 9 52 67 70 
4 70 67 57 2 
4 67 68 69 70 
4 36 39 66 71 
4 71 66 46 45 
4 39 48 68 66 
4 66 68 58 46 
4 36 52 67 71 
4 71 67 57 45 
4 71 66 68 67 
4 24 36 71 63 
4 63 71 45 33 
4 63 62 66 71 
4 11 19 61 72 
4 72 61 23 7 
4 11 29 64 72 
4 72 64 35 7 
4 72 61 62 64 
4 48 51 73 68 
4 68 73 59 58 
4 10 51 73 74 
4 74 73 59 6 
4 10 18 69 74 
4 74 69 22 6 
4 68 73 74 69 
4 41 51 73 65 
4 65 73 59 47 
4 66 65 73 68 

CELL_TYPES 128
9 
9 
9 
9 
9 
9 
9 
9 
9 
9 
9 
9 
9 
9 
9 
9 
9 
9 
9 
9 
9 
9 
9 
9 
9 
9 
9 
9 
9 
9 
9 
9 
9 
9 
9 
9 
9 
9 
9 
9 
9 
9 
9 
9 
9 
9 
9 
9 
9 
9 
9 
9 
9 
9 
9 
9 
9 
9 
9 
9 
9 
9 
9 
9 
9 
9 
9 
9 
9 
9 
9 
9 
9 
9 
9 
9 
9 
9 
9 
9 
9 
9 
9 
9 
9 
9 
9 
9 
9 
9 
9 
9 
9 
9 
9 
9 
9 
9 
9 
9 
9 
9 
9 
9 
9 
9 
9 
9 
9 
9 
9 
9 
9 
9 
9 
9 
9 
9 
9 
9 
9 
9 
9 
9 
9 
9 
9 
9 
POINT_DATA 75
SCALARS GMDS_ID int 1
LOOKUP_TABLE default
0 1 2 3 4 5 6 7 8 9 10 11 12 13 14 15 16 17 18 19 20 21 22 23 24 25 26 27 28 29 30 31 32 33 34 35 36 37 38 39 40 41 42 43 44 45 46 47 48 49 50 51 52 53 54 55 56 57 58 59 60 61 62 63 64 65 66 67 68 69 70 71 72 73 74 
SCALARS geom_link_dim_0 int 1
LOOKUP_TABLE default
0 0 0 0 0 0 0 0 0 0 0 0 0 0 0 0 0 0 0 0 0 0 0 0 0 0 0 0 0 0 0 0 0 0 0 0 0 0 0 0 0 0 0 0 0 0 0 0 0 0 0 0 0 0 0 0 0 0 0 0 0 0 0 0 0 0 0 0 0 0 0 0 0 0 0 
SCALARS geom_link_id_0 int 1
LOOKUP_TABLE default
0 0 0 0 0 0 0 0 0 0 0 0 0 0 0 0 0 0 0 0 0 0 0 0 0 0 0 0 0 0 0 0 0 0 0 0 0 0 0 0 0 0 0 0 0 0 0 0 0 0 0 0 0 0 0 0 0 0 0 0 0 0 0 0 0 0 0 0 0 0 0 0 0 0 0 


CELL_DATA 128
SCALARS GMDS_ID int 1
LOOKUP_TABLE default
0 1 2 3 4 5 6 7 8 9 10 11 12 13 14 15 16 17 18 19 20 21 22 23 24 25 26 27 28 29 30 31 34 35 38 39 40 41 42 43 44 45 46 47 48 49 50 51 52 53 54 55 56 58 60 61 62 65 66 67 69 70 71 72 73 74 75 76 77 78 79 81 83 84 85 88 89 90 92 93 94 95 96 97 98 99 100 101 102 107 108 112 113 115 116 117 118 119 120 121 122 123 124 125 126 127 128 129 130 131 132 133 134 135 136 137 138 139 140 141 142 143 144 145 146 147 148 149 

SCALARS geom_link_dim_0 int 1
LOOKUP_TABLE default
0 0 0 0 0 0 0 0 0 0 0 0 0 0 0 0 0 0 0 0 0 0 0 0 0 0 0 0 0 0 0 0 0 0 0 0 0 0 0 0 0 0 0 0 0 0 0 0 0 0 0 0 0 0 0 0 0 0 0 0 0 0 0 0 0 0 0 0 0 0 0 0 0 0 0 0 0 0 0 0 0 0 0 0 0 0 0 0 0 0 0 0 0 0 0 0 0 0 0 0 0 0 0 0 0 0 0 0 0 0 0 0 0 0 0 0 0 0 0 0 0 0 0 0 0 0 0 0 

SCALARS geom_link_id_0 int 1
LOOKUP_TABLE default
0 0 0 0 0 0 0 0 0 0 0 0 0 0 0 0 0 0 0 0 0 0 0 0 0 0 0 0 0 0 0 0 0 0 0 0 0 0 0 0 0 0 0 0 0 0 0 0 0 0 0 0 0 0 0 0 0 0 0 0 0 0 0 0 0 0 0 0 0 0 0 0 0 0 0 0 0 0 0 0 0 0 0 0 0 0 0 0 0 0 0 0 0 0 0 0 0 0 0 0 0 0 0 0 0 0 0 0 0 0 0 0 0 0 0 0 0 0 0 0 0 0 0 0 0 0 0 0 

