# vtk DataFile Version 3.0
Generated by GMDS VTK Writer

ASCII
DATASET UNSTRUCTURED_GRID
POINTS 150 float
0 0 0
0 10 0
10 10 0
10 0 0
0 0 10
0 10 10
10 10 10
10 0 10
0 4 0
0 4 10
10 4 10
10 4 0
1 0 0
1 0 10
1 4 10
1 4 0
1 10 10
1 10 0
10 0 1
10 4 1
1 4 1
1 0 1
0 4 1
0 0 1
10 10 1
1 10 1
0 10 1
10 1 0
1 1 0
1 1 1
10 1 1
1 1 10
10 1 10
0 1 0
0 1 1
0 1 10
10 0 4
1 0 4
1 1 4
10 1 4
10 10 4
10 4 4
1 4 4
1 10 4
0 4 4
0 10 4
0 0 4
0 1 4
4 10 4
4 4 4
4 4 1
4 10 1
4 10 10
4 4 10
4 1 0
4 1 1
4 4 0
4 0 0
4 0 1
4 0 4
4 1 4
4 0 10
4 1 10
4 10 0
4 6 10
4 6 4
1 6 4
1 6 10
10 6 10
10 6 4
4 6 1
1 6 1
0 6 0
1 6 0
0 6 1
10 6 1
0 6 10
0 6 4
10 6 0
4 6 0
6 1 0
6 1 1
6 4 1
6 4 0
6 0 0
6 0 1
6 0 4
6 1 4
6 0 10
6 1 10
6 6 10
6 6 4
6 4 4
6 4 10
6 10 10
6 10 4
6 10 1
6 6 1
6 10 0
6 6 0
10 0 6
10 1 6
6 1 6
6 0 6
1 6 6
4 6 6
4 4 6
1 4 6
1 10 6
4 10 6
0 0 6
1 0 6
1 1 6
0 1 6
0 4 6
4 0 6
4 1 6
0 10 6
0 6 6
10 4 6
10 6 6
6 6 6
6 4 6
10 10 6
6 10 6
10 0 8
10 1 8
6 1 8
6 0 8
1 6 8
4 6 8
4 4 8
1 4 8
1 10 8
4 10 8
0 0 8
1 0 8
1 1 8
0 1 8
0 4 8
4 0 8
4 1 8
0 10 8
0 6 8
10 4 8
10 6 8
6 6 8
6 4 8
10 10 8
6 10 8

CELLS 296 1480
4 1 17 73 72 
4 7 32 89 88 
4 70 65 66 71 
4 71 70 50 20 
4 86 87 81 85 
4 112 113 47 38 
4 85 86 59 58 
4 25 51 70 71 
4 71 66 42 20 
4 139 138 113 114 
4 27 30 19 11 
4 3 18 30 27 
4 25 43 66 71 
4 36 39 30 18 
4 9 35 138 139 
4 65 70 50 49 
4 48 51 70 65 
4 111 112 38 37 
4 28 29 20 15 
4 18 36 86 85 
4 12 21 29 28 
4 110 111 37 46 
4 81 87 60 55 
4 139 132 107 114 
4 108 109 105 104 
4 37 38 29 21 
4 8 15 20 22 
4 9 14 132 139 
4 132 137 112 107 
4 14 31 137 132 
4 0 12 21 23 
4 108 104 66 43 
4 135 136 137 138 
4 30 39 87 81 
4 86 87 60 59 
4 36 39 87 86 
4 84 85 81 80 
4 67 64 53 14 
4 84 80 54 57 
4 16 52 64 67 
4 3 27 80 84 
4 51 48 43 25 
4 1 17 25 26 
4 85 81 55 58 
4 135 138 113 110 
4 18 30 81 85 
4 84 85 58 57 
4 50 49 42 20 
4 0 12 28 33 
4 33 28 15 8 
4 21 23 34 29 
4 29 34 22 20 
4 0 23 34 33 
4 33 34 22 8 
4 33 28 29 34 
4 4 13 31 35 
4 35 31 14 9 
4 109 105 65 48 
4 3 18 85 84 
4 80 81 82 83 
4 4 35 138 135 
4 83 80 54 56 
4 11 27 80 83 
4 66 65 49 42 
4 43 48 65 66 
4 137 138 113 112 
4 31 35 138 137 
4 44 42 20 22 
4 83 82 50 56 
4 11 19 82 83 
4 136 137 112 111 
4 45 43 25 26 
4 82 81 55 50 
4 13 31 137 136 
4 42 38 29 20 
4 135 136 111 110 
4 41 39 30 19 
4 4 13 136 135 
4 133 134 130 129 
4 46 37 21 23 
4 133 129 104 108 
4 38 47 34 29 
4 16 67 129 133 
4 46 47 34 23 
4 46 37 38 47 
4 134 130 105 109 
4 44 47 34 22 
4 47 38 42 44 
4 54 55 29 28 
4 50 55 29 20 
4 108 109 48 43 
4 56 50 20 15 
4 56 54 28 15 
4 54 55 50 56 
4 104 105 106 107 
4 57 58 21 12 
4 107 104 66 42 
4 58 55 29 21 
4 57 54 28 12 
4 57 58 55 54 
4 107 106 49 42 
4 59 60 38 37 
4 55 60 38 29 
4 106 105 65 49 
4 58 59 37 21 
4 59 60 55 58 
4 61 62 31 13 
4 105 104 66 65 
4 52 64 130 134 
4 133 134 109 108 
4 16 52 134 133 
4 19 30 81 82 
4 80 81 55 54 
4 100 101 102 103 
4 63 51 25 17 
4 27 30 81 80 
4 100 103 86 36 
4 53 62 31 14 
4 60 49 42 38 
4 129 130 131 132 
4 49 60 55 50 
4 72 73 15 8 
4 17 25 71 73 
4 73 71 20 15 
4 25 26 74 71 
4 71 74 22 20 
4 1 26 74 72 
4 72 74 22 8 
4 72 73 71 74 
4 24 40 69 75 
4 75 69 41 19 
4 103 102 87 86 
4 101 102 87 39 
4 5 16 67 76 
4 76 67 14 9 
4 43 45 77 66 
4 66 77 44 42 
4 132 129 104 107 
4 14 67 129 132 
4 132 131 106 107 
4 26 45 77 74 
4 74 77 44 22 
4 77 66 71 74 
4 2 24 75 78 
4 78 75 19 11 
4 51 63 79 70 
4 70 79 56 50 
4 100 101 39 36 
4 17 63 79 73 
4 73 79 56 15 
4 79 70 71 73 
4 88 89 62 61 
4 14 53 131 132 
4 131 130 105 106 
4 53 64 130 131 
4 130 129 104 105 
4 64 67 129 130 
4 125 126 127 128 
4 125 128 103 100 
4 41 69 91 92 
4 92 91 65 49 
4 7 88 128 125 
4 128 127 102 103 
4 10 68 90 93 
4 93 90 64 53 
4 88 89 127 128 
4 126 127 102 101 
4 32 89 127 126 
4 40 69 91 95 
4 95 91 65 48 
4 6 68 90 94 
4 94 90 64 52 
4 125 126 101 100 
4 10 32 89 93 
4 93 89 62 53 
4 39 41 92 87 
4 87 92 49 60 
4 7 32 126 125 
4 19 41 92 82 
4 82 92 49 50 
4 92 87 81 82 
4 24 40 95 96 
4 96 95 48 51 
4 69 75 97 91 
4 91 97 70 65 
4 24 75 97 96 
4 96 97 70 51 
4 96 95 91 97 
4 19 75 97 82 
4 82 97 70 50 
4 97 91 92 82 
4 2 24 96 98 
4 98 96 51 63 
4 75 78 99 97 
4 97 99 79 70 
4 2 78 99 98 
4 98 99 79 63 
4 98 96 97 99 
4 11 78 99 83 
4 83 99 79 56 
4 99 97 82 83 
4 110 113 47 46 
4 110 111 112 113 
4 107 112 38 42 
4 114 107 42 44 
4 114 113 47 44 
4 113 112 107 114 
4 115 116 60 59 
4 112 116 60 38 
4 111 115 59 37 
4 115 116 112 111 
4 106 116 60 49 
4 106 116 112 107 
4 117 108 43 45 
4 104 118 77 66 
4 117 118 77 45 
4 117 108 104 118 
4 114 118 77 44 
4 118 104 107 114 
4 116 102 87 60 
4 115 103 86 59 
4 103 102 116 115 
4 119 120 69 41 
4 120 121 91 69 
4 121 122 92 91 
4 119 122 92 41 
4 119 120 121 122 
4 105 121 91 65 
4 106 122 92 49 
4 122 121 105 106 
4 123 120 69 40 
4 121 124 95 91 
4 123 124 95 40 
4 123 120 121 124 
4 109 124 95 48 
4 124 121 105 109 
4 119 101 39 41 
4 102 122 92 87 
4 119 101 102 122 
4 122 102 116 106 
4 138 137 132 139 
4 61 62 141 140 
4 140 141 116 115 
4 31 62 141 137 
4 137 141 116 112 
4 13 61 140 136 
4 136 140 115 111 
4 140 141 137 136 
4 53 62 141 131 
4 131 141 116 106 
4 131 141 137 132 
4 5 16 133 142 
4 142 133 108 117 
4 67 76 143 129 
4 129 143 118 104 
4 5 76 143 142 
4 142 143 118 117 
4 142 133 129 143 
4 9 76 143 139 
4 139 143 118 114 
4 143 129 132 139 
4 62 89 127 141 
4 141 127 102 116 
4 61 88 128 140 
4 140 128 103 115 
4 128 127 141 140 
4 10 68 145 144 
4 144 145 120 119 
4 68 90 146 145 
4 145 146 121 120 
4 90 93 147 146 
4 146 147 122 121 
4 10 93 147 144 
4 144 147 122 119 
4 144 145 146 147 
4 64 90 146 130 
4 130 146 121 105 
4 53 93 147 131 
4 131 147 122 106 
4 147 146 130 131 
4 6 68 145 148 
4 148 145 120 123 
4 90 94 149 146 
4 146 149 124 121 
4 6 94 149 148 
4 148 149 124 123 
4 148 145 146 149 
4 52 94 149 134 
4 134 149 124 109 
4 149 146 130 134 
4 10 32 126 144 
4 144 126 101 119 
4 89 93 147 127 
4 127 147 122 102 
4 144 126 127 147 
4 147 127 141 131 

CELL_TYPES 296
9 
9 
9 
9 
9 
9 
9 
9 
9 
9 
9 
9 
9 
9 
9 
9 
9 
9 
9 
9 
9 
9 
9 
9 
9 
9 
9 
9 
9 
9 
9 
9 
9 
9 
9 
9 
9 
9 
9 
9 
9 
9 
9 
9 
9 
9 
9 
9 
9 
9 
9 
9 
9 
9 
9 
9 
9 
9 
9 
9 
9 
9 
9 
9 
9 
9 
9 
9 
9 
9 
9 
9 
9 
9 
9 
9 
9 
9 
9 
9 
9 
9 
9 
9 
9 
9 
9 
9 
9 
9 
9 
9 
9 
9 
9 
9 
9 
9 
9 
9 
9 
9 
9 
9 
9 
9 
9 
9 
9 
9 
9 
9 
9 
9 
9 
9 
9 
9 
9 
9 
9 
9 
9 
9 
9 
9 
9 
9 
9 
9 
9 
9 
9 
9 
9 
9 
9 
9 
9 
9 
9 
9 
9 
9 
9 
9 
9 
9 
9 
9 
9 
9 
9 
9 
9 
9 
9 
9 
9 
9 
9 
9 
9 
9 
9 
9 
9 
9 
9 
9 
9 
9 
9 
9 
9 
9 
9 
9 
9 
9 
9 
9 
9 
9 
9 
9 
9 
9 
9 
9 
9 
9 
9 
9 
9 
9 
9 
9 
9 
9 
9 
9 
9 
9 
9 
9 
9 
9 
9 
9 
9 
9 
9 
9 
9 
9 
9 
9 
9 
9 
9 
9 
9 
9 
9 
9 
9 
9 
9 
9 
9 
9 
9 
9 
9 
9 
9 
9 
9 
9 
9 
9 
9 
9 
9 
9 
9 
9 
9 
9 
9 
9 
9 
9 
9 
9 
9 
9 
9 
9 
9 
9 
9 
9 
9 
9 
9 
9 
9 
9 
9 
9 
9 
9 
9 
9 
9 
9 
9 
9 
9 
9 
9 
9 
9 
9 
9 
9 
9 
9 
9 
9 
9 
9 
9 
9 
POINT_DATA 150
SCALARS GMDS_ID int 1
LOOKUP_TABLE default
0 1 2 3 4 5 6 7 8 9 10 11 12 13 14 15 16 17 18 19 20 21 22 23 24 25 26 27 28 29 30 31 32 33 34 35 36 37 38 39 40 41 42 43 44 45 46 47 48 49 50 51 52 53 54 55 56 57 58 59 60 61 62 63 64 65 66 67 68 69 70 71 72 73 74 75 76 77 78 79 80 81 82 83 84 85 86 87 88 89 90 91 92 93 94 95 96 97 98 99 100 101 102 103 104 105 106 107 108 109 110 111 112 113 114 115 116 117 118 119 120 121 122 123 124 125 126 127 128 129 130 131 132 133 134 135 136 137 138 139 140 141 142 143 144 145 146 147 148 149 
SCALARS geom_link_dim_0 int 1
LOOKUP_TABLE default
0 0 0 0 0 0 0 0 0 0 0 0 0 0 0 0 0 0 0 0 0 0 0 0 0 0 0 0 0 0 0 0 0 0 0 0 0 0 0 0 0 0 0 0 0 0 0 0 0 0 0 0 0 0 0 0 0 0 0 0 0 0 0 0 0 0 0 0 0 0 0 0 0 0 0 0 0 0 0 0 0 0 0 0 0 0 0 0 0 0 0 0 0 0 0 0 0 0 0 0 0 0 0 0 0 0 0 0 0 0 0 0 0 0 0 0 0 0 0 0 0 0 0 0 0 0 0 0 0 0 0 0 0 0 0 0 0 0 0 0 0 0 0 0 0 0 0 0 0 0 
SCALARS geom_link_id_0 int 1
LOOKUP_TABLE default
0 0 0 0 0 0 0 0 0 0 0 0 0 0 0 0 0 0 0 0 0 0 0 0 0 0 0 0 0 0 0 0 0 0 0 0 0 0 0 0 0 0 0 0 0 0 0 0 0 0 0 0 0 0 0 0 0 0 0 0 0 0 0 0 0 0 0 0 0 0 0 0 0 0 0 0 0 0 0 0 0 0 0 0 0 0 0 0 0 0 0 0 0 0 0 0 0 0 0 0 0 0 0 0 0 0 0 0 0 0 0 0 0 0 0 0 0 0 0 0 0 0 0 0 0 0 0 0 0 0 0 0 0 0 0 0 0 0 0 0 0 0 0 0 0 0 0 0 0 0 


CELL_DATA 296
SCALARS GMDS_ID int 1
LOOKUP_TABLE default
0 1 2 3 4 5 6 7 8 9 10 11 12 13 14 15 16 18 19 21 22 23 25 26 27 28 29 30 31 32 33 34 35 36 37 38 39 40 41 42 43 44 45 47 48 49 50 51 52 53 54 55 56 57 58 59 60 61 62 63 64 65 66 67 68 69 70 71 72 73 74 75 76 77 78 79 80 81 82 83 84 85 86 87 88 89 90 91 92 94 95 96 98 99 100 101 102 103 105 106 107 108 110 111 112 113 115 116 117 119 120 121 122 123 124 125 126 127 129 130 131 132 133 134 135 136 137 138 139 140 141 142 144 145 146 147 148 149 150 151 152 153 154 155 156 157 158 160 162 163 164 165 166 167 168 169 170 171 172 173 174 175 176 177 178 179 180 181 182 183 184 185 186 187 188 189 190 191 192 193 194 195 196 197 198 199 200 201 202 203 204 205 206 207 208 209 210 211 212 213 214 216 217 219 221 223 224 226 228 230 231 233 234 236 238 240 241 243 244 246 248 249 251 253 255 257 258 260 262 263 265 267 269 270 272 273 275 277 278 279 280 281 282 283 284 285 286 287 288 289 290 291 292 293 294 295 296 297 298 299 300 301 302 303 304 305 306 307 308 309 310 311 312 313 314 315 316 317 318 319 320 321 322 323 324 325 326 327 328 329 330 331 332 333 334 335 

SCALARS geom_link_dim_0 int 1
LOOKUP_TABLE default
0 0 0 0 0 0 0 0 0 0 0 0 0 0 0 0 0 0 0 0 0 0 0 0 0 0 0 0 0 0 0 0 0 0 0 0 0 0 0 0 0 0 0 0 0 0 0 0 0 0 0 0 0 0 0 0 0 0 0 0 0 0 0 0 0 0 0 0 0 0 0 0 0 0 0 0 0 0 0 0 0 0 0 0 0 0 0 0 0 0 0 0 0 0 0 0 0 0 0 0 0 0 0 0 0 0 0 0 0 0 0 0 0 0 0 0 0 0 0 0 0 0 0 0 0 0 0 0 0 0 0 0 0 0 0 0 0 0 0 0 0 0 0 0 0 0 0 0 0 0 0 0 0 0 0 0 0 0 0 0 0 0 0 0 0 0 0 0 0 0 0 0 0 0 0 0 0 0 0 0 0 0 0 0 0 0 0 0 0 0 0 0 0 0 0 0 0 0 0 0 0 0 0 0 0 0 0 0 0 0 0 0 0 0 0 0 0 0 0 0 0 0 0 0 0 0 0 0 0 0 0 0 0 0 0 0 0 0 0 0 0 0 0 0 0 0 0 0 0 0 0 0 0 0 0 0 0 0 0 0 0 0 0 0 0 0 0 0 0 0 0 0 0 0 0 0 0 0 0 0 0 0 0 0 0 0 0 0 0 0 0 0 0 0 0 0 

SCALARS geom_link_id_0 int 1
LOOKUP_TABLE default
0 0 0 0 0 0 0 0 0 0 0 0 0 0 0 0 0 0 0 0 0 0 0 0 0 0 0 0 0 0 0 0 0 0 0 0 0 0 0 0 0 0 0 0 0 0 0 0 0 0 0 0 0 0 0 0 0 0 0 0 0 0 0 0 0 0 0 0 0 0 0 0 0 0 0 0 0 0 0 0 0 0 0 0 0 0 0 0 0 0 0 0 0 0 0 0 0 0 0 0 0 0 0 0 0 0 0 0 0 0 0 0 0 0 0 0 0 0 0 0 0 0 0 0 0 0 0 0 0 0 0 0 0 0 0 0 0 0 0 0 0 0 0 0 0 0 0 0 0 0 0 0 0 0 0 0 0 0 0 0 0 0 0 0 0 0 0 0 0 0 0 0 0 0 0 0 0 0 0 0 0 0 0 0 0 0 0 0 0 0 0 0 0 0 0 0 0 0 0 0 0 0 0 0 0 0 0 0 0 0 0 0 0 0 0 0 0 0 0 0 0 0 0 0 0 0 0 0 0 0 0 0 0 0 0 0 0 0 0 0 0 0 0 0 0 0 0 0 0 0 0 0 0 0 0 0 0 0 0 0 0 0 0 0 0 0 0 0 0 0 0 0 0 0 0 0 0 0 0 0 0 0 0 0 0 0 0 0 0 0 0 0 0 0 0 0 

