# vtk DataFile Version 3.0
Generated by GMDS VTK Writer

ASCII
DATASET UNSTRUCTURED_GRID
POINTS 100 float
0 0 0
0 10 0
10 10 0
10 0 0
0 0 10
0 10 10
10 10 10
10 0 10
0 4 0
0 4 10
10 4 10
10 4 0
1 0 0
1 0 10
1 4 10
1 4 0
1 10 10
1 10 0
10 0 1
10 4 1
1 4 1
1 0 1
0 4 1
0 0 1
10 10 1
1 10 1
0 10 1
10 1 0
1 1 0
1 1 1
10 1 1
1 1 10
10 1 10
0 1 0
0 1 1
0 1 10
10 0 4
1 0 4
1 1 4
10 1 4
10 10 4
10 4 4
1 4 4
1 10 4
0 4 4
0 10 4
0 0 4
0 1 4
4 10 4
4 4 4
4 4 1
4 10 1
4 10 10
4 4 10
4 1 0
4 1 1
4 4 0
4 0 0
4 0 1
4 0 4
4 1 4
4 0 10
4 1 10
4 10 0
4 6 10
4 6 4
1 6 4
1 6 10
10 6 10
10 6 4
4 6 1
1 6 1
0 6 0
1 6 0
0 6 1
10 6 1
0 6 10
0 6 4
10 6 0
4 6 0
6 1 0
6 1 1
6 4 1
6 4 0
6 0 0
6 0 1
6 0 4
6 1 4
6 0 10
6 1 10
6 6 10
6 6 4
6 4 4
6 4 10
6 10 10
6 10 4
6 10 1
6 6 1
6 10 0
6 6 0

CELLS 184 920
4 1 17 73 72 
4 7 32 89 88 
4 70 65 66 71 
4 71 70 50 20 
4 86 87 81 85 
4 85 86 59 58 
4 25 51 70 71 
4 71 66 42 20 
4 52 48 43 16 
4 27 30 19 11 
4 3 18 30 27 
4 25 43 66 71 
4 36 39 30 18 
4 7 32 39 36 
4 65 70 50 49 
4 48 51 70 65 
4 28 29 20 15 
4 18 36 86 85 
4 12 21 29 28 
4 81 87 60 55 
4 68 69 41 10 
4 37 38 29 21 
4 8 15 20 22 
4 53 49 42 14 
4 13 31 38 37 
4 6 40 69 68 
4 0 12 21 23 
4 64 65 66 67 
4 30 39 87 81 
4 86 87 60 59 
4 36 39 87 86 
4 84 85 81 80 
4 67 64 53 14 
4 84 80 54 57 
4 16 52 64 67 
4 3 27 80 84 
4 51 48 43 25 
4 1 17 25 26 
4 85 81 55 58 
4 67 66 42 14 
4 18 30 81 85 
4 84 85 58 57 
4 50 49 42 20 
4 0 12 28 33 
4 33 28 15 8 
4 21 23 34 29 
4 29 34 22 20 
4 0 23 34 33 
4 33 34 22 8 
4 33 28 29 34 
4 4 13 31 35 
4 35 31 14 9 
4 3 18 85 84 
4 80 81 82 83 
4 16 43 66 67 
4 83 80 54 56 
4 11 27 80 83 
4 66 65 49 42 
4 43 48 65 66 
4 65 64 53 49 
4 9 14 42 44 
4 44 42 20 22 
4 83 82 50 56 
4 11 19 82 83 
4 5 16 43 45 
4 45 43 25 26 
4 82 81 55 50 
4 14 31 38 42 
4 42 38 29 20 
4 10 32 39 41 
4 41 39 30 19 
4 48 52 64 65 
4 4 13 37 46 
4 46 37 21 23 
4 31 35 47 38 
4 38 47 34 29 
4 4 35 47 46 
4 46 47 34 23 
4 46 37 38 47 
4 9 35 47 44 
4 44 47 34 22 
4 47 38 42 44 
4 54 55 29 28 
4 50 55 29 20 
4 56 50 20 15 
4 56 54 28 15 
4 54 55 50 56 
4 57 58 21 12 
4 58 55 29 21 
4 57 54 28 12 
4 57 58 55 54 
4 59 60 38 37 
4 55 60 38 29 
4 58 59 37 21 
4 59 60 55 58 
4 61 62 31 13 
4 62 60 38 31 
4 61 59 37 13 
4 61 62 60 59 
4 19 30 81 82 
4 80 81 55 54 
4 63 51 25 17 
4 27 30 81 80 
4 53 62 31 14 
4 60 49 42 38 
4 53 62 60 49 
4 49 60 55 50 
4 72 73 15 8 
4 17 25 71 73 
4 73 71 20 15 
4 25 26 74 71 
4 71 74 22 20 
4 1 26 74 72 
4 72 74 22 8 
4 72 73 71 74 
4 24 40 69 75 
4 75 69 41 19 
4 5 16 67 76 
4 76 67 14 9 
4 43 45 77 66 
4 66 77 44 42 
4 5 45 77 76 
4 76 77 44 9 
4 76 67 66 77 
4 26 45 77 74 
4 74 77 44 22 
4 77 66 71 74 
4 2 24 75 78 
4 78 75 19 11 
4 51 63 79 70 
4 70 79 56 50 
4 17 63 79 73 
4 73 79 56 15 
4 79 70 71 73 
4 88 89 62 61 
4 32 39 87 89 
4 89 87 60 62 
4 7 36 86 88 
4 88 86 59 61 
4 88 89 87 86 
4 68 69 91 90 
4 90 91 65 64 
4 41 69 91 92 
4 92 91 65 49 
4 10 41 92 93 
4 93 92 49 53 
4 10 68 90 93 
4 93 90 64 53 
4 90 91 92 93 
4 6 40 95 94 
4 94 95 48 52 
4 40 69 91 95 
4 95 91 65 48 
4 6 68 90 94 
4 94 90 64 52 
4 94 95 91 90 
4 10 32 89 93 
4 93 89 62 53 
4 39 41 92 87 
4 87 92 49 60 
4 93 89 87 92 
4 19 41 92 82 
4 82 92 49 50 
4 92 87 81 82 
4 24 40 95 96 
4 96 95 48 51 
4 69 75 97 91 
4 91 97 70 65 
4 24 75 97 96 
4 96 97 70 51 
4 96 95 91 97 
4 19 75 97 82 
4 82 97 70 50 
4 97 91 92 82 
4 2 24 96 98 
4 98 96 51 63 
4 75 78 99 97 
4 97 99 79 70 
4 2 78 99 98 
4 98 99 79 63 
4 98 96 97 99 
4 11 78 99 83 
4 83 99 79 56 
4 99 97 82 83 

CELL_TYPES 184
9 
9 
9 
9 
9 
9 
9 
9 
9 
9 
9 
9 
9 
9 
9 
9 
9 
9 
9 
9 
9 
9 
9 
9 
9 
9 
9 
9 
9 
9 
9 
9 
9 
9 
9 
9 
9 
9 
9 
9 
9 
9 
9 
9 
9 
9 
9 
9 
9 
9 
9 
9 
9 
9 
9 
9 
9 
9 
9 
9 
9 
9 
9 
9 
9 
9 
9 
9 
9 
9 
9 
9 
9 
9 
9 
9 
9 
9 
9 
9 
9 
9 
9 
9 
9 
9 
9 
9 
9 
9 
9 
9 
9 
9 
9 
9 
9 
9 
9 
9 
9 
9 
9 
9 
9 
9 
9 
9 
9 
9 
9 
9 
9 
9 
9 
9 
9 
9 
9 
9 
9 
9 
9 
9 
9 
9 
9 
9 
9 
9 
9 
9 
9 
9 
9 
9 
9 
9 
9 
9 
9 
9 
9 
9 
9 
9 
9 
9 
9 
9 
9 
9 
9 
9 
9 
9 
9 
9 
9 
9 
9 
9 
9 
9 
9 
9 
9 
9 
9 
9 
9 
9 
9 
9 
9 
9 
9 
9 
9 
9 
9 
9 
9 
9 
POINT_DATA 100
SCALARS GMDS_ID int 1
LOOKUP_TABLE default
0 1 2 3 4 5 6 7 8 9 10 11 12 13 14 15 16 17 18 19 20 21 22 23 24 25 26 27 28 29 30 31 32 33 34 35 36 37 38 39 40 41 42 43 44 45 46 47 48 49 50 51 52 53 54 55 56 57 58 59 60 61 62 63 64 65 66 67 68 69 70 71 72 73 74 75 76 77 78 79 80 81 82 83 84 85 86 87 88 89 90 91 92 93 94 95 96 97 98 99 
SCALARS geom_link_dim_0 int 1
LOOKUP_TABLE default
0 0 0 0 0 0 0 0 0 0 0 0 0 0 0 0 0 0 0 0 0 0 0 0 0 0 0 0 0 0 0 0 0 0 0 0 0 0 0 0 0 0 0 0 0 0 0 0 0 0 0 0 0 0 0 0 0 0 0 0 0 0 0 0 0 0 0 0 0 0 0 0 0 0 0 0 0 0 0 0 0 0 0 0 0 0 0 0 0 0 0 0 0 0 0 0 0 0 0 0 
SCALARS geom_link_id_0 int 1
LOOKUP_TABLE default
0 0 0 0 0 0 0 0 0 0 0 0 0 0 0 0 0 0 0 0 0 0 0 0 0 0 0 0 0 0 0 0 0 0 0 0 0 0 0 0 0 0 0 0 0 0 0 0 0 0 0 0 0 0 0 0 0 0 0 0 0 0 0 0 0 0 0 0 0 0 0 0 0 0 0 0 0 0 0 0 0 0 0 0 0 0 0 0 0 0 0 0 0 0 0 0 0 0 0 0 


CELL_DATA 184
SCALARS GMDS_ID int 1
LOOKUP_TABLE default
0 1 2 3 4 6 7 8 9 10 11 12 13 14 15 16 19 21 22 25 26 28 29 30 31 32 33 35 36 37 38 39 40 41 42 43 44 45 47 48 49 50 51 52 53 54 55 56 57 58 59 60 62 63 64 65 66 67 68 69 70 71 72 73 74 75 76 77 78 79 80 81 82 83 84 85 86 87 88 89 90 91 92 94 96 98 99 101 103 105 106 108 110 112 113 115 117 119 120 121 122 124 125 127 129 130 131 132 133 134 135 136 137 138 139 140 141 145 146 147 148 149 150 151 152 153 154 155 156 157 158 162 163 164 165 166 167 168 169 170 171 172 173 174 175 176 177 178 179 180 181 182 183 184 185 186 187 188 189 190 191 192 193 194 195 196 197 198 199 200 201 202 203 204 205 206 207 208 209 210 211 212 213 214 

SCALARS geom_link_dim_0 int 1
LOOKUP_TABLE default
0 0 0 0 0 0 0 0 0 0 0 0 0 0 0 0 0 0 0 0 0 0 0 0 0 0 0 0 0 0 0 0 0 0 0 0 0 0 0 0 0 0 0 0 0 0 0 0 0 0 0 0 0 0 0 0 0 0 0 0 0 0 0 0 0 0 0 0 0 0 0 0 0 0 0 0 0 0 0 0 0 0 0 0 0 0 0 0 0 0 0 0 0 0 0 0 0 0 0 0 0 0 0 0 0 0 0 0 0 0 0 0 0 0 0 0 0 0 0 0 0 0 0 0 0 0 0 0 0 0 0 0 0 0 0 0 0 0 0 0 0 0 0 0 0 0 0 0 0 0 0 0 0 0 0 0 0 0 0 0 0 0 0 0 0 0 0 0 0 0 0 0 0 0 0 0 0 0 0 0 0 0 0 0 

SCALARS geom_link_id_0 int 1
LOOKUP_TABLE default
0 0 0 0 0 0 0 0 0 0 0 0 0 0 0 0 0 0 0 0 0 0 0 0 0 0 0 0 0 0 0 0 0 0 0 0 0 0 0 0 0 0 0 0 0 0 0 0 0 0 0 0 0 0 0 0 0 0 0 0 0 0 0 0 0 0 0 0 0 0 0 0 0 0 0 0 0 0 0 0 0 0 0 0 0 0 0 0 0 0 0 0 0 0 0 0 0 0 0 0 0 0 0 0 0 0 0 0 0 0 0 0 0 0 0 0 0 0 0 0 0 0 0 0 0 0 0 0 0 0 0 0 0 0 0 0 0 0 0 0 0 0 0 0 0 0 0 0 0 0 0 0 0 0 0 0 0 0 0 0 0 0 0 0 0 0 0 0 0 0 0 0 0 0 0 0 0 0 0 0 0 0 0 0 

