# vtk DataFile Version 3.0
Generated by GMDS VTK Writer

ASCII
DATASET UNSTRUCTURED_GRID
POINTS 216 float
0 0 0
0 10 0
10 10 0
10 0 0
0 0 10
0 10 10
10 10 10
10 0 10
0 1 0
0 1 10
10 1 10
10 1 0
0 6 0
0 6 10
10 6 10
10 6 0
6 6 0
6 6 10
6 10 10
6 10 0
6 1 0
6 1 10
6 0 0
6 0 10
0 10 1
0 6 1
6 6 1
6 10 1
10 6 1
10 10 1
0 1 1
6 1 1
10 1 1
0 0 1
6 0 1
10 0 1
0 10 8
0 6 8
6 6 8
6 10 8
10 6 8
10 10 8
0 1 8
6 1 8
10 1 8
0 0 8
6 0 8
10 0 8
8 6 0
8 10 0
8 10 1
8 6 1
8 6 8
8 10 8
8 10 10
8 6 10
8 1 0
8 1 1
8 0 0
8 0 1
8 1 8
8 1 10
8 0 8
8 0 10
1 6 1
1 1 1
1 1 8
1 6 8
1 10 0
1 6 0
1 10 1
1 10 8
1 6 10
1 10 10
1 1 0
1 0 0
1 0 1
1 1 10
1 0 8
1 0 10
8 8 10
8 8 8
10 8 8
10 8 10
1 8 10
1 8 8
6 8 8
6 8 10
0 8 10
0 8 8
1 8 0
1 8 1
6 8 1
6 8 0
0 8 0
0 8 1
8 8 0
8 8 1
10 8 1
10 8 0
1 6 6
1 1 6
6 1 6
6 6 6
0 6 6
0 1 6
8 1 6
8 6 6
10 1 6
10 6 6
6 0 6
8 0 6
10 0 6
0 0 6
1 0 6
1 8 6
6 8 6
1 10 6
6 10 6
0 8 6
0 10 6
8 8 6
10 8 6
8 10 6
10 10 6
1 6 4
1 1 4
6 1 4
6 6 4
0 6 4
0 1 4
8 1 4
8 6 4
10 1 4
10 6 4
6 0 4
8 0 4
10 0 4
0 0 4
1 0 4
1 8 4
6 8 4
1 10 4
6 10 4
0 8 4
0 10 4
8 8 4
10 8 4
8 10 4
10 10 4
4 8 8
4 8 10
4 10 10
4 10 8
4 6 8
4 6 10
4 6 6
4 1 6
4 1 8
4 1 0
4 6 0
4 6 1
4 1 1
4 0 0
4 0 1
4 1 10
4 0 8
4 0 10
4 8 0
4 8 1
4 10 0
4 10 1
4 6 4
4 1 4
4 0 6
4 8 6
4 10 6
4 0 4
4 8 4
4 10 4
8 4 10
8 4 8
10 4 8
10 4 10
0 4 10
0 4 8
1 4 8
1 4 10
6 4 10
6 4 8
10 4 6
8 4 6
6 4 6
0 4 6
1 4 6
0 4 0
0 4 1
1 4 1
1 4 0
8 4 0
8 4 1
10 4 1
10 4 0
6 4 0
6 4 1
4 4 1
4 4 0
10 4 4
8 4 4
6 4 4
0 4 4
1 4 4
4 4 8
4 4 6
4 4 10
4 4 4

CELLS 450 2250
4 163 164 34 22 
4 88 84 73 5 
4 55 52 40 14 
4 32 35 137 133 
4 13 72 84 88 
4 64 69 198 197 
4 13 37 67 72 
4 17 38 52 55 
4 89 85 71 36 
4 109 107 52 40 
4 75 76 164 163 
4 162 164 34 31 
4 108 106 60 44 
4 65 76 164 162 
4 37 67 85 89 
4 103 107 52 38 
4 159 163 22 20 
4 88 89 36 5 
4 13 37 89 88 
4 196 197 65 30 
4 25 64 197 196 
4 195 196 30 8 
4 74 75 163 159 
4 12 25 196 195 
4 1 24 70 68 
4 87 86 39 18 
4 102 106 60 43 
4 17 38 86 87 
4 193 194 186 185 
4 185 193 105 42 
4 85 84 73 71 
4 37 104 193 185 
4 104 100 67 37 
4 54 53 41 6 
4 162 159 20 31 
4 18 39 53 54 
4 12 25 64 69 
4 105 101 66 42 
4 65 74 159 162 
4 67 72 84 85 
4 48 51 28 15 
4 80 81 82 83 
4 16 26 51 48 
4 186 194 101 66 
4 67 100 194 186 
4 137 136 111 112 
4 0 8 30 33 
4 20 22 34 31 
4 49 50 29 2 
4 83 80 54 6 
4 19 27 50 49 
4 14 55 80 83 
4 3 11 32 35 
4 35 59 136 137 
4 161 160 16 26 
4 127 135 136 131 
4 131 136 111 106 
4 83 82 41 6 
4 14 40 82 83 
4 82 81 53 41 
4 57 59 136 131 
4 194 193 105 101 
4 135 136 111 110 
4 34 59 136 135 
4 42 45 4 9 
4 127 135 110 102 
4 43 46 23 21 
4 40 52 81 82 
4 81 80 54 53 
4 52 55 80 81 
4 31 34 135 127 
4 44 47 7 10 
4 100 104 193 194 
4 192 191 181 189 
4 134 132 107 109 
4 28 51 132 134 
4 64 69 160 161 
4 20 31 57 56 
4 56 57 32 11 
4 20 22 58 56 
4 56 58 3 11 
4 22 34 59 58 
4 58 59 35 3 
4 31 34 59 57 
4 57 59 35 32 
4 56 58 59 57 
4 133 131 106 108 
4 32 57 131 133 
4 21 43 60 61 
4 61 60 44 10 
4 128 132 107 103 
4 26 51 132 128 
4 43 46 62 60 
4 60 62 47 44 
4 23 46 62 63 
4 63 62 47 7 
4 21 23 63 61 
4 61 63 7 10 
4 60 62 63 61 
4 5 36 71 73 
4 189 192 102 43 
4 127 131 106 102 
4 38 103 192 189 
4 8 30 65 74 
4 192 191 106 102 
4 0 8 74 75 
4 103 107 191 192 
4 30 33 76 65 
4 190 191 181 182 
4 0 33 76 75 
4 182 190 108 44 
4 75 74 65 76 
4 9 42 66 77 
4 40 109 190 182 
4 181 191 106 60 
4 31 57 131 127 
4 42 45 78 66 
4 52 107 191 181 
4 129 125 100 104 
4 4 45 78 79 
4 191 190 108 106 
4 4 9 77 79 
4 107 109 190 191 
4 66 78 79 77 
4 88 89 85 84 
4 38 52 81 86 
4 86 81 53 39 
4 17 55 80 87 
4 87 80 54 18 
4 87 86 81 80 
4 64 69 90 91 
4 91 90 68 70 
4 188 189 181 180 
4 188 180 61 21 
4 16 26 92 93 
4 93 92 27 19 
4 17 55 180 188 
4 189 181 60 43 
4 38 52 181 189 
4 12 25 95 94 
4 94 95 24 1 
4 25 64 91 95 
4 95 91 70 24 
4 12 69 90 94 
4 94 90 68 1 
4 94 95 91 90 
4 48 51 97 96 
4 96 97 50 49 
4 28 51 97 98 
4 98 97 50 29 
4 15 28 98 99 
4 99 98 29 2 
4 15 48 96 99 
4 99 96 49 2 
4 96 97 98 99 
4 26 51 97 92 
4 92 97 50 27 
4 16 48 96 93 
4 93 96 49 19 
4 93 92 97 96 
4 25 64 125 129 
4 130 126 101 105 
4 30 65 126 130 
4 188 189 43 21 
4 17 38 189 188 
4 184 185 186 187 
4 184 187 77 9 
4 13 72 187 184 
4 102 110 46 43 
4 110 111 62 46 
4 106 111 62 60 
4 102 110 111 106 
4 154 156 103 38 
4 112 111 62 47 
4 67 100 156 154 
4 108 112 47 44 
4 106 111 112 108 
4 105 113 45 42 
4 113 114 78 45 
4 158 157 102 43 
4 101 114 78 66 
4 105 113 114 101 
4 66 101 157 158 
4 186 187 77 66 
4 67 72 187 186 
4 100 115 85 67 
4 185 186 66 42 
4 154 155 151 150 
4 103 116 86 38 
4 37 67 186 185 
4 154 150 86 38 
4 117 115 85 71 
4 67 85 150 154 
4 184 185 42 9 
4 155 151 87 17 
4 118 116 86 39 
4 13 37 185 184 
4 72 84 151 155 
4 115 119 89 85 
4 154 155 17 38 
4 104 119 89 37 
4 104 100 115 119 
4 67 72 155 154 
4 120 117 71 36 
4 150 151 152 153 
4 120 119 89 36 
4 119 115 117 120 
4 153 150 86 39 
4 107 121 81 52 
4 71 85 150 153 
4 121 122 82 81 
4 153 152 18 39 
4 109 122 82 40 
4 109 107 121 122 
4 71 73 152 153 
4 123 121 81 53 
4 152 151 87 18 
4 124 123 53 41 
4 73 84 151 152 
4 124 122 82 41 
4 122 121 123 124 
4 151 150 86 87 
4 116 121 81 86 
4 103 107 121 116 
4 84 85 150 151 
4 118 123 53 39 
4 116 121 123 118 
4 133 137 112 108 
4 131 136 137 133 
4 30 33 138 130 
4 130 138 113 105 
4 33 76 139 138 
4 138 139 114 113 
4 65 76 139 126 
4 126 139 114 101 
4 130 138 139 126 
4 180 181 182 183 
4 183 180 61 10 
4 14 55 180 183 
4 64 91 140 125 
4 125 140 115 100 
4 183 182 44 10 
4 14 40 182 183 
4 26 92 141 128 
4 128 141 116 103 
4 182 181 60 44 
4 70 91 140 142 
4 142 140 115 117 
4 40 52 181 182 
4 181 180 61 60 
4 27 92 141 143 
4 143 141 116 118 
4 52 55 180 181 
4 91 95 144 140 
4 140 144 119 115 
4 25 95 144 129 
4 129 144 119 104 
4 129 125 140 144 
4 24 70 142 145 
4 145 142 117 120 
4 24 95 144 145 
4 145 144 119 120 
4 144 140 142 145 
4 51 97 146 132 
4 132 146 121 107 
4 97 98 147 146 
4 146 147 122 121 
4 28 98 147 134 
4 134 147 122 109 
4 134 132 146 147 
4 50 97 146 148 
4 148 146 121 123 
4 29 50 148 149 
4 149 148 123 124 
4 29 98 147 149 
4 149 147 122 124 
4 147 146 148 149 
4 92 97 146 141 
4 141 146 121 116 
4 128 132 146 141 
4 27 50 148 143 
4 143 148 123 118 
4 141 146 148 143 
4 163 159 162 164 
4 66 77 165 158 
4 158 165 21 43 
4 66 78 166 158 
4 158 166 46 43 
4 78 79 167 166 
4 166 167 23 46 
4 77 79 167 165 
4 165 167 23 21 
4 158 166 167 165 
4 69 90 168 160 
4 160 168 93 16 
4 90 91 169 168 
4 168 169 92 93 
4 64 91 169 161 
4 161 169 92 26 
4 161 160 168 169 
4 68 90 168 170 
4 170 168 93 19 
4 68 70 171 170 
4 170 171 27 19 
4 70 91 169 171 
4 171 169 92 27 
4 169 168 170 171 
4 101 126 173 157 
4 157 173 127 102 
4 100 125 172 156 
4 156 172 128 103 
4 65 126 173 162 
4 162 173 127 31 
4 64 125 172 161 
4 161 172 128 26 
4 101 114 174 157 
4 157 174 110 102 
4 78 114 174 166 
4 166 174 110 46 
4 157 174 166 158 
4 100 115 175 156 
4 156 175 116 103 
4 85 115 175 150 
4 150 175 116 86 
4 156 175 150 154 
4 115 117 176 175 
4 175 176 118 116 
4 71 117 176 153 
4 153 176 118 39 
4 176 175 150 153 
4 76 139 177 164 
4 164 177 135 34 
4 126 139 177 173 
4 173 177 135 127 
4 162 164 177 173 
4 114 139 177 174 
4 174 177 135 110 
4 173 177 174 157 
4 91 140 178 169 
4 169 178 141 92 
4 125 140 178 172 
4 172 178 141 128 
4 161 169 178 172 
4 115 140 178 175 
4 175 178 141 116 
4 172 178 175 156 
4 140 142 179 178 
4 178 179 143 141 
4 70 142 179 171 
4 171 179 143 27 
4 171 169 178 179 
4 117 142 179 176 
4 176 179 143 118 
4 179 178 175 176 
4 197 198 74 65 
4 12 69 198 195 
4 195 198 74 8 
4 195 196 197 198 
4 48 51 200 199 
4 199 200 57 56 
4 28 51 200 201 
4 201 200 57 32 
4 15 28 201 202 
4 202 201 32 11 
4 15 48 199 202 
4 202 199 56 11 
4 199 200 201 202 
4 16 26 204 203 
4 203 204 31 20 
4 26 51 200 204 
4 204 200 57 31 
4 16 48 199 203 
4 203 199 56 20 
4 203 204 200 199 
4 160 161 205 206 
4 206 205 162 159 
4 16 160 206 203 
4 203 206 159 20 
4 26 161 205 204 
4 204 205 162 31 
4 205 206 203 204 
4 132 134 207 208 
4 208 207 133 131 
4 107 132 208 191 
4 191 208 131 106 
4 109 134 207 190 
4 190 207 133 108 
4 207 208 191 190 
4 51 132 208 200 
4 200 208 131 57 
4 28 134 207 201 
4 201 207 133 32 
4 201 200 208 207 
4 69 160 206 198 
4 198 206 159 74 
4 64 161 205 197 
4 197 205 162 65 
4 197 198 206 205 
4 128 132 208 209 
4 209 208 131 127 
4 103 128 209 192 
4 192 209 127 102 
4 209 208 191 192 
4 26 128 209 204 
4 204 209 127 31 
4 204 200 208 209 
4 125 129 210 211 
4 211 210 130 126 
4 100 125 211 194 
4 194 211 126 101 
4 104 129 210 193 
4 193 210 130 105 
4 210 211 194 193 
4 64 125 211 197 
4 197 211 126 65 
4 25 129 210 196 
4 196 210 130 30 
4 196 197 211 210 
4 154 156 213 212 
4 212 213 157 158 
4 103 156 213 192 
4 192 213 157 102 
4 38 154 212 189 
4 189 212 158 43 
4 212 213 192 189 
4 100 156 213 194 
4 194 213 157 101 
4 67 154 212 186 
4 186 212 158 66 
4 186 194 213 212 
4 154 155 214 212 
4 212 214 165 158 
4 17 155 214 188 
4 188 214 165 21 
4 212 214 188 189 
4 72 155 214 187 
4 187 214 165 77 
4 186 187 214 212 
4 125 172 215 211 
4 211 215 173 126 
4 156 172 215 213 
4 213 215 173 157 
4 194 211 215 213 
4 128 172 215 209 
4 209 215 173 127 
4 213 215 209 192 
4 161 172 215 205 
4 205 215 173 162 
4 197 211 215 205 
4 205 215 209 204 

CELL_TYPES 450
9 
9 
9 
9 
9 
9 
9 
9 
9 
9 
9 
9 
9 
9 
9 
9 
9 
9 
9 
9 
9 
9 
9 
9 
9 
9 
9 
9 
9 
9 
9 
9 
9 
9 
9 
9 
9 
9 
9 
9 
9 
9 
9 
9 
9 
9 
9 
9 
9 
9 
9 
9 
9 
9 
9 
9 
9 
9 
9 
9 
9 
9 
9 
9 
9 
9 
9 
9 
9 
9 
9 
9 
9 
9 
9 
9 
9 
9 
9 
9 
9 
9 
9 
9 
9 
9 
9 
9 
9 
9 
9 
9 
9 
9 
9 
9 
9 
9 
9 
9 
9 
9 
9 
9 
9 
9 
9 
9 
9 
9 
9 
9 
9 
9 
9 
9 
9 
9 
9 
9 
9 
9 
9 
9 
9 
9 
9 
9 
9 
9 
9 
9 
9 
9 
9 
9 
9 
9 
9 
9 
9 
9 
9 
9 
9 
9 
9 
9 
9 
9 
9 
9 
9 
9 
9 
9 
9 
9 
9 
9 
9 
9 
9 
9 
9 
9 
9 
9 
9 
9 
9 
9 
9 
9 
9 
9 
9 
9 
9 
9 
9 
9 
9 
9 
9 
9 
9 
9 
9 
9 
9 
9 
9 
9 
9 
9 
9 
9 
9 
9 
9 
9 
9 
9 
9 
9 
9 
9 
9 
9 
9 
9 
9 
9 
9 
9 
9 
9 
9 
9 
9 
9 
9 
9 
9 
9 
9 
9 
9 
9 
9 
9 
9 
9 
9 
9 
9 
9 
9 
9 
9 
9 
9 
9 
9 
9 
9 
9 
9 
9 
9 
9 
9 
9 
9 
9 
9 
9 
9 
9 
9 
9 
9 
9 
9 
9 
9 
9 
9 
9 
9 
9 
9 
9 
9 
9 
9 
9 
9 
9 
9 
9 
9 
9 
9 
9 
9 
9 
9 
9 
9 
9 
9 
9 
9 
9 
9 
9 
9 
9 
9 
9 
9 
9 
9 
9 
9 
9 
9 
9 
9 
9 
9 
9 
9 
9 
9 
9 
9 
9 
9 
9 
9 
9 
9 
9 
9 
9 
9 
9 
9 
9 
9 
9 
9 
9 
9 
9 
9 
9 
9 
9 
9 
9 
9 
9 
9 
9 
9 
9 
9 
9 
9 
9 
9 
9 
9 
9 
9 
9 
9 
9 
9 
9 
9 
9 
9 
9 
9 
9 
9 
9 
9 
9 
9 
9 
9 
9 
9 
9 
9 
9 
9 
9 
9 
9 
9 
9 
9 
9 
9 
9 
9 
9 
9 
9 
9 
9 
9 
9 
9 
9 
9 
9 
9 
9 
9 
9 
9 
9 
9 
9 
9 
9 
9 
9 
9 
9 
9 
9 
9 
9 
9 
9 
9 
9 
9 
9 
9 
9 
9 
9 
9 
9 
9 
9 
9 
9 
9 
9 
9 
9 
9 
9 
9 
9 
9 
9 
9 
9 
POINT_DATA 216
SCALARS GMDS_ID int 1
LOOKUP_TABLE default
0 1 2 3 4 5 6 7 8 9 10 11 12 13 14 15 16 17 18 19 20 21 22 23 24 25 26 27 28 29 30 31 32 33 34 35 36 37 38 39 40 41 42 43 44 45 46 47 48 49 50 51 52 53 54 55 56 57 58 59 60 61 62 63 64 65 66 67 68 69 70 71 72 73 74 75 76 77 78 79 80 81 82 83 84 85 86 87 88 89 90 91 92 93 94 95 96 97 98 99 100 101 102 103 104 105 106 107 108 109 110 111 112 113 114 115 116 117 118 119 120 121 122 123 124 125 126 127 128 129 130 131 132 133 134 135 136 137 138 139 140 141 142 143 144 145 146 147 148 149 150 151 152 153 154 155 156 157 158 159 160 161 162 163 164 165 166 167 168 169 170 171 172 173 174 175 176 177 178 179 180 181 182 183 184 185 186 187 188 189 190 191 192 193 194 195 196 197 198 199 200 201 202 203 204 205 206 207 208 209 210 211 212 213 214 215 
SCALARS geom_link_dim int 1
LOOKUP_TABLE default
1 1 1 1 1 1 1 1 2 2 2 2 2 2 2 2 3 3 2 2 3 3 2 2 2 3 0 3 3 2 3 0 3 2 3 2 2 3 1 3 3 2 3 0 3 2 3 2 3 2 3 0 1 3 2 3 3 0 2 3 0 3 3 2 0 0 0 0 2 3 3 3 3 2 3 2 3 3 3 2 3 1 3 2 3 0 1 3 2 3 3 0 0 3 2 3 3 0 3 2 0 0 0 1 3 3 0 1 3 3 3 3 2 2 3 0 1 3 3 3 2 1 3 3 2 0 0 0 0 3 3 0 0 3 3 3 3 2 2 3 0 0 3 3 3 2 0 3 3 2 0 3 2 3 0 3 0 0 0 3 3 0 0 2 3 3 3 2 3 0 2 3 0 0 3 0 3 3 0 3 3 0 3 2 2 3 0 3 3 0 3 0 0 3 0 2 3 0 3 3 0 3 2 3 0 0 3 3 0 0 3 0 0 0 3 0 
SCALARS geom_link_id int 1
LOOKUP_TABLE default
10 12 16 13 9 11 15 14 19 29 26 31 19 29 26 31 11 18 25 30 11 18 20 28 32 10 0 17 13 27 10 0 13 21 12 33 32 10 1 17 13 27 10 0 13 21 12 33 11 30 17 0 5 17 25 18 11 0 20 12 0 18 12 28 0 0 0 0 30 11 17 17 18 25 11 20 12 18 12 28 18 7 13 26 18 0 3 18 29 10 11 0 0 11 19 10 11 0 13 31 0 0 0 2 10 10 0 6 13 13 12 12 33 21 12 0 4 17 17 10 32 8 13 17 27 0 0 0 0 10 10 0 0 13 13 12 12 33 21 12 0 0 17 17 10 32 0 13 17 27 0 18 25 17 0 18 0 0 0 11 11 0 0 20 12 18 12 28 11 0 30 17 0 0 12 0 17 12 0 17 18 -1 13 26 29 10 -1 18 18 -1 13 -1 -1 10 -1 19 10 -1 11 11 -1 13 31 11 -1 -1 11 13 -1 -1 10 -1 -1 -1 18 -1 


CELL_DATA 450
SCALARS GMDS_ID int 1
LOOKUP_TABLE default
0 1 2 3 4 6 7 8 9 10 11 13 14 15 17 18 19 20 21 22 23 24 26 27 28 29 30 31 32 34 36 37 38 39 40 41 42 43 44 49 50 51 53 54 55 56 57 59 60 61 62 63 64 66 67 68 70 72 73 74 75 77 79 80 81 82 83 84 85 86 87 88 90 92 93 94 97 100 101 105 106 107 108 109 110 111 112 113 117 118 122 123 124 125 127 128 129 130 131 132 133 136 139 140 141 143 144 145 146 147 148 149 150 151 153 155 157 158 159 160 161 162 163 164 165 166 167 168 169 170 171 172 173 174 175 176 177 178 179 180 181 182 183 184 185 186 187 188 189 190 191 192 193 194 195 196 197 198 199 200 201 202 203 206 207 208 211 212 215 217 219 220 221 222 223 224 225 227 229 230 231 232 233 234 235 237 239 240 241 242 243 244 245 246 247 248 249 250 251 252 253 254 255 256 257 258 259 260 261 262 263 264 265 266 267 268 269 270 271 272 273 274 275 276 277 278 279 280 281 282 283 284 285 286 287 288 289 290 291 292 293 294 295 296 297 298 299 300 301 302 303 304 305 306 307 308 309 310 311 312 313 314 315 316 317 318 319 320 321 322 323 324 325 326 327 328 329 330 331 332 333 334 335 336 337 338 342 343 344 345 346 347 348 349 350 351 352 353 354 355 356 357 358 359 360 361 362 365 366 367 368 370 371 372 373 375 376 377 378 379 380 381 382 383 384 385 386 387 388 389 390 391 392 393 394 395 396 397 398 399 400 401 402 403 404 405 406 407 408 409 410 411 412 413 414 415 416 417 418 419 420 421 422 423 424 425 426 427 428 429 430 431 432 433 434 435 436 437 438 439 440 441 442 443 444 445 446 447 448 449 450 451 452 453 454 455 456 457 458 459 460 461 462 463 464 465 466 467 468 469 470 471 472 473 474 475 476 477 478 479 480 481 482 483 484 485 486 487 488 489 490 491 492 493 494 495 496 497 498 499 500 501 502 503 504 505 506 507 508 509 

SCALARS geom_link_dim int 1
LOOKUP_TABLE default
0 0 0 0 0 0 0 0 0 0 0 0 0 0 0 0 0 0 0 0 0 0 0 0 0 0 0 0 0 0 0 0 0 0 0 0 0 0 0 0 0 0 0 0 0 0 0 0 0 0 0 0 0 0 0 0 0 0 0 0 0 0 0 0 0 0 0 0 0 0 0 0 0 0 0 0 0 0 0 0 0 0 0 0 0 0 0 0 0 0 0 0 0 0 0 0 0 0 0 0 0 0 0 0 0 0 0 0 0 0 0 0 0 0 0 0 0 0 0 0 0 0 0 0 0 0 0 0 0 0 0 0 0 0 0 0 0 0 0 0 0 0 0 0 0 0 0 0 0 0 0 0 0 0 0 0 0 0 0 0 0 0 0 0 0 0 0 0 0 0 0 0 0 0 0 0 0 0 0 0 0 0 0 0 0 0 0 0 0 0 0 0 0 0 0 0 0 0 0 0 0 0 0 0 0 0 0 0 0 0 0 0 0 0 0 0 0 0 0 0 0 0 0 0 0 0 0 0 0 0 0 0 0 0 0 0 0 0 0 0 0 0 0 0 0 0 0 0 0 0 0 0 0 0 0 0 0 0 0 0 0 0 0 0 0 0 0 0 0 0 0 0 0 0 0 0 0 0 0 0 0 0 0 0 0 0 0 0 0 0 0 0 0 0 0 0 0 0 0 0 0 0 0 0 0 0 0 0 0 0 0 0 0 0 0 0 0 0 0 0 0 0 0 0 0 0 0 0 0 0 0 0 0 0 0 0 0 0 0 0 0 0 0 0 0 0 0 0 0 0 0 0 0 0 0 0 0 0 0 0 0 0 0 0 0 0 0 0 0 0 0 0 0 0 0 0 0 0 0 0 0 0 0 0 0 0 0 0 0 0 0 0 0 0 0 0 0 0 0 0 0 0 0 0 0 0 0 0 0 0 0 0 0 0 0 0 0 0 0 0 0 0 0 0 0 0 0 0 0 0 0 0 0 0 0 0 0 0 0 0 0 0 0 0 0 0 0 0 0 0 

SCALARS geom_link_id int 1
LOOKUP_TABLE default
0 0 0 0 0 -1 0 0 0 0 0 0 0 0 0 0 0 0 0 -1 -1 -1 0 -1 0 0 0 0 -1 -1 0 -1 0 0 0 0 0 0 0 0 0 0 0 -1 -1 0 0 0 0 0 0 0 0 0 0 0 0 0 0 0 0 -1 0 0 0 0 0 0 0 0 0 0 -1 -1 0 0 0 0 0 0 0 0 0 0 0 0 0 0 0 0 0 0 0 0 0 0 0 0 0 0 -1 0 -1 0 -1 0 -1 0 -1 0 -1 0 0 -1 -1 0 0 -1 0 0 -1 0 -1 0 0 0 0 0 0 0 0 0 -1 -1 0 0 -1 -1 -1 0 0 0 0 0 0 0 0 0 0 0 0 0 0 0 0 0 0 0 0 0 0 0 0 -1 -1 -1 -1 -1 0 0 0 0 0 0 0 0 0 0 0 0 0 0 0 -1 -1 0 -1 0 0 -1 0 0 0 -1 0 0 -1 0 0 0 0 0 0 0 0 0 0 0 0 0 0 0 0 0 0 0 0 0 0 0 0 0 0 0 0 0 0 0 0 0 0 0 0 0 0 0 -1 -1 -1 0 0 -1 -1 0 0 -1 0 0 -1 -1 0 0 -1 0 0 0 0 0 0 0 0 0 0 0 0 0 0 0 0 0 0 0 0 0 0 0 0 0 0 0 0 0 0 0 0 0 0 0 0 0 0 0 0 0 0 0 0 0 0 0 0 0 0 0 0 0 0 0 0 0 0 0 0 0 0 0 0 0 0 0 0 0 0 0 0 0 0 0 0 0 0 0 0 0 0 0 0 0 0 0 0 0 0 0 0 0 0 0 0 0 0 0 0 0 -1 -1 -1 -1 -1 -1 -1 -1 -1 -1 -1 -1 -1 -1 -1 -1 -1 -1 -1 -1 -1 -1 -1 -1 -1 -1 -1 -1 -1 -1 -1 -1 -1 -1 -1 -1 -1 -1 -1 -1 -1 -1 -1 -1 -1 -1 -1 -1 -1 -1 -1 -1 -1 -1 -1 -1 -1 -1 -1 -1 -1 -1 -1 -1 -1 -1 -1 -1 -1 -1 -1 -1 -1 -1 -1 -1 -1 -1 -1 -1 -1 -1 -1 -1 -1 -1 -1 -1 -1 -1 -1 -1 -1 -1 -1 -1 

