# vtk DataFile Version 3.0
Generated by GMDS VTK Writer

ASCII
DATASET UNSTRUCTURED_GRID
POINTS 80 float
0 0 0
0 10 0
10 10 0
10 0 0
0 0 10
0 10 10
10 10 10
10 0 10
0 1 0
0 1 10
10 1 10
10 1 0
0 0 1
10 0 1
10 1 1
0 1 1
10 10 1
0 10 1
1 0 0
1 1 0
1 1 1
1 0 1
1 1 10
1 0 10
1 10 0
1 10 1
1 10 10
0 0 4
0 1 4
1 1 4
1 0 4
10 1 4
10 0 4
0 10 4
1 10 4
10 10 4
10 4 4
1 4 4
1 4 1
10 4 1
1 4 0
10 4 0
10 4 10
1 4 10
0 4 0
0 4 1
0 4 4
0 4 10
4 1 4
4 0 4
4 0 1
4 1 1
4 1 10
4 0 10
4 4 0
4 4 1
4 10 1
4 10 0
4 1 0
4 0 0
4 4 4
4 10 4
4 4 10
4 10 10
6 1 10
6 0 10
6 0 4
6 1 4
6 0 1
6 1 1
6 4 0
6 4 1
6 10 1
6 10 0
6 1 0
6 0 0
6 4 4
6 10 4
6 4 10
6 10 10

CELLS 141 705
4 11 14 39 41 
4 3 11 14 13 
4 0 12 21 18 
4 7 10 31 32 
4 70 73 2 41 
4 54 57 73 70 
4 12 15 20 21 
4 72 73 2 16 
4 56 57 73 72 
4 27 28 29 30 
4 8 15 20 19 
4 71 72 16 39 
4 27 30 21 12 
4 4 23 30 27 
4 0 8 19 18 
4 29 30 21 20 
4 22 23 30 29 
4 0 8 15 12 
4 40 38 25 24 
4 28 29 20 15 
4 38 40 54 55 
4 19 20 38 40 
4 9 22 29 28 
4 27 28 15 12 
4 52 53 49 48 
4 55 56 72 71 
4 4 9 28 27 
4 70 71 39 41 
4 18 19 20 21 
4 39 36 35 16 
4 14 31 36 39 
4 4 9 22 23 
4 54 55 71 70 
4 67 66 68 69 
4 67 69 14 31 
4 38 37 34 25 
4 22 29 48 52 
4 23 30 49 53 
4 1 17 25 24 
4 48 51 69 67 
4 22 23 53 52 
4 48 49 50 51 
4 20 29 37 38 
4 68 69 14 13 
4 50 51 69 68 
4 32 31 14 13 
4 66 68 13 32 
4 49 50 68 66 
4 64 65 66 67 
4 20 29 48 51 
4 20 21 50 51 
4 5 26 34 33 
4 33 34 25 17 
4 21 30 49 50 
4 67 64 10 31 
4 48 52 64 67 
4 29 30 49 48 
4 41 39 16 2 
4 67 66 32 31 
4 48 49 66 67 
4 66 65 7 32 
4 49 53 65 66 
4 64 65 7 10 
4 22 29 37 43 
4 43 37 34 26 
4 10 31 36 42 
4 42 36 35 6 
4 52 53 65 64 
4 8 15 45 44 
4 44 45 17 1 
4 15 20 38 45 
4 45 38 25 17 
4 8 19 40 44 
4 44 40 24 1 
4 44 45 38 40 
4 28 29 37 46 
4 46 37 34 33 
4 15 28 46 45 
4 45 46 33 17 
4 46 37 38 45 
4 9 22 43 47 
4 47 43 26 5 
4 9 28 46 47 
4 47 46 33 5 
4 47 43 37 46 
4 25 38 55 56 
4 24 25 56 57 
4 24 40 54 57 
4 54 55 56 57 
4 19 20 51 58 
4 20 38 55 51 
4 19 40 54 58 
4 58 51 55 54 
4 18 19 58 59 
4 18 21 50 59 
4 59 58 51 50 
4 37 38 55 60 
4 34 37 60 61 
4 25 34 61 56 
4 55 60 61 56 
4 29 37 60 48 
4 51 48 60 55 
4 37 43 62 60 
4 22 43 62 52 
4 52 48 60 62 
4 26 34 61 63 
4 26 43 62 63 
4 62 60 61 63 
4 70 71 72 73 
4 51 58 74 69 
4 69 74 11 14 
4 51 55 71 69 
4 69 71 39 14 
4 54 58 74 70 
4 70 74 11 41 
4 74 69 71 70 
4 58 59 75 74 
4 74 75 3 11 
4 50 59 75 68 
4 68 75 3 13 
4 75 74 69 68 
4 55 60 76 71 
4 71 76 36 39 
4 60 61 77 76 
4 76 77 35 36 
4 56 61 77 72 
4 72 77 35 16 
4 71 76 77 72 
4 48 60 76 67 
4 67 76 36 31 
4 69 67 76 71 
4 60 62 78 76 
4 76 78 42 36 
4 52 62 78 64 
4 64 78 42 10 
4 64 67 76 78 
4 61 63 79 77 
4 77 79 6 35 
4 62 63 79 78 
4 78 79 6 42 
4 78 76 77 79 

CELL_TYPES 141
9 
9 
9 
9 
9 
9 
9 
9 
9 
9 
9 
9 
9 
9 
9 
9 
9 
9 
9 
9 
9 
9 
9 
9 
9 
9 
9 
9 
9 
9 
9 
9 
9 
9 
9 
9 
9 
9 
9 
9 
9 
9 
9 
9 
9 
9 
9 
9 
9 
9 
9 
9 
9 
9 
9 
9 
9 
9 
9 
9 
9 
9 
9 
9 
9 
9 
9 
9 
9 
9 
9 
9 
9 
9 
9 
9 
9 
9 
9 
9 
9 
9 
9 
9 
9 
9 
9 
9 
9 
9 
9 
9 
9 
9 
9 
9 
9 
9 
9 
9 
9 
9 
9 
9 
9 
9 
9 
9 
9 
9 
9 
9 
9 
9 
9 
9 
9 
9 
9 
9 
9 
9 
9 
9 
9 
9 
9 
9 
9 
9 
9 
9 
9 
9 
9 
9 
9 
9 
9 
9 
9 
POINT_DATA 80
SCALARS GMDS_ID int 1
LOOKUP_TABLE default
0 1 2 3 4 5 6 7 8 9 10 11 12 13 14 15 16 17 18 19 20 21 22 23 24 25 26 27 28 29 30 31 32 33 34 35 36 37 38 39 40 41 42 43 44 45 46 47 48 49 50 51 52 53 54 55 56 57 58 59 60 61 62 63 64 65 66 67 68 69 70 71 72 73 74 75 76 77 78 79 
SCALARS geom_link_dim_0 int 1
LOOKUP_TABLE default
0 0 0 0 0 0 0 0 0 0 0 0 0 0 0 0 0 0 0 0 0 0 0 0 0 0 0 0 0 0 0 0 0 0 0 0 0 0 0 0 0 0 0 0 0 0 0 0 0 0 0 0 0 0 0 0 0 0 0 0 0 0 0 0 0 0 0 0 0 0 0 0 0 0 0 0 0 0 0 0 
SCALARS geom_link_id_0 int 1
LOOKUP_TABLE default
0 0 0 0 0 0 0 0 0 0 0 0 0 0 0 0 0 0 0 0 0 0 0 0 0 0 0 0 0 0 0 0 0 0 0 0 0 0 0 0 0 0 0 0 0 0 0 0 0 0 0 0 0 0 0 0 0 0 0 0 0 0 0 0 0 0 0 0 0 0 0 0 0 0 0 0 0 0 0 0 


CELL_DATA 141
SCALARS GMDS_ID int 1
LOOKUP_TABLE default
0 1 2 3 4 5 6 7 8 9 10 11 12 13 14 15 16 17 18 19 20 21 22 23 24 25 26 27 28 29 30 31 32 33 34 35 37 39 40 41 43 44 45 46 47 48 49 50 51 53 55 56 57 59 61 62 63 64 65 66 67 68 69 70 71 72 73 74 75 76 77 78 79 80 81 82 83 84 85 86 87 88 89 90 91 93 95 97 99 100 102 104 106 107 109 111 112 114 116 118 119 121 122 124 126 127 129 131 132 133 134 135 136 137 138 139 140 141 142 143 144 145 146 147 148 149 150 151 152 153 154 155 156 157 158 159 160 161 162 163 164 

SCALARS geom_link_dim_0 int 1
LOOKUP_TABLE default
0 0 0 0 0 0 0 0 0 0 0 0 0 0 0 0 0 0 0 0 0 0 0 0 0 0 0 0 0 0 0 0 0 0 0 0 0 0 0 0 0 0 0 0 0 0 0 0 0 0 0 0 0 0 0 0 0 0 0 0 0 0 0 0 0 0 0 0 0 0 0 0 0 0 0 0 0 0 0 0 0 0 0 0 0 0 0 0 0 0 0 0 0 0 0 0 0 0 0 0 0 0 0 0 0 0 0 0 0 0 0 0 0 0 0 0 0 0 0 0 0 0 0 0 0 0 0 0 0 0 0 0 0 0 0 0 0 0 0 0 0 

SCALARS geom_link_id_0 int 1
LOOKUP_TABLE default
0 0 0 0 0 0 0 0 0 0 0 0 0 0 0 0 0 0 0 0 0 0 0 0 0 0 0 0 0 0 0 0 0 0 0 0 0 0 0 0 0 0 0 0 0 0 0 0 0 0 0 0 0 0 0 0 0 0 0 0 0 0 0 0 0 0 0 0 0 0 0 0 0 0 0 0 0 0 0 0 0 0 0 0 0 0 0 0 0 0 0 0 0 0 0 0 0 0 0 0 0 0 0 0 0 0 0 0 0 0 0 0 0 0 0 0 0 0 0 0 0 0 0 0 0 0 0 0 0 0 0 0 0 0 0 0 0 0 0 0 0 

