# vtk DataFile Version 3.0
Generated by GMDS VTK Writer

ASCII
DATASET UNSTRUCTURED_GRID
POINTS 125 float
0 0 0
0 10 0
10 10 0
10 0 0
0 0 10
0 10 10
10 10 10
10 0 10
0 1 0
0 1 10
10 1 10
10 1 0
0 0 1
10 0 1
10 1 1
0 1 1
10 10 1
0 10 1
1 0 0
1 1 0
1 1 1
1 0 1
1 1 10
1 0 10
1 10 0
1 10 1
1 10 10
0 0 4
0 1 4
1 1 4
1 0 4
10 1 4
10 0 4
0 10 4
1 10 4
10 10 4
10 4 4
1 4 4
1 4 1
10 4 1
1 4 0
10 4 0
10 4 10
1 4 10
0 4 0
0 4 1
0 4 4
0 4 10
4 1 4
4 0 4
4 0 1
4 1 1
4 1 10
4 0 10
4 4 0
4 4 1
4 10 1
4 10 0
4 1 0
4 0 0
4 4 4
4 10 4
4 4 10
4 10 10
6 1 10
6 0 10
6 0 4
6 1 4
6 0 1
6 1 1
6 4 0
6 4 1
6 10 1
6 10 0
6 1 0
6 0 0
6 4 4
6 10 4
6 4 10
6 10 10
1 6 1
1 6 0
4 6 0
4 6 1
6 6 0
6 6 1
10 6 1
10 6 0
0 6 0
0 6 1
0 6 4
1 6 4
0 6 10
1 6 10
4 6 4
4 6 10
6 6 4
10 6 4
6 6 10
10 6 10
0 0 6
0 1 6
1 1 6
1 0 6
4 0 6
4 1 6
6 1 6
6 0 6
10 0 6
10 1 6
1 4 6
0 4 6
4 4 6
6 4 6
10 4 6
0 6 6
1 6 6
0 10 6
1 10 6
4 6 6
4 10 6
6 6 6
6 10 6
10 6 6
10 10 6

CELLS 240 1200
4 11 14 39 41 
4 3 11 14 13 
4 0 12 21 18 
4 29 37 110 102 
4 105 104 107 106 
4 12 15 20 21 
4 72 73 2 16 
4 56 57 73 72 
4 27 28 29 30 
4 8 15 20 19 
4 105 106 64 52 
4 27 30 21 12 
4 0 8 19 18 
4 29 30 21 20 
4 0 8 15 12 
4 48 67 106 105 
4 28 29 20 15 
4 38 40 54 55 
4 19 20 38 40 
4 27 28 15 12 
4 104 107 65 53 
4 70 71 39 41 
4 18 19 20 21 
4 49 66 107 104 
4 14 31 36 39 
4 4 9 22 23 
4 54 55 71 70 
4 67 66 68 69 
4 67 69 14 31 
4 106 107 108 109 
4 44 45 89 88 
4 82 83 85 84 
4 1 17 25 24 
4 48 51 69 67 
4 82 84 73 57 
4 22 23 53 52 
4 48 49 50 51 
4 20 29 37 38 
4 68 69 14 13 
4 50 51 69 68 
4 32 31 14 13 
4 66 68 13 32 
4 49 50 68 66 
4 54 70 84 82 
4 20 29 48 51 
4 83 85 72 56 
4 20 21 50 51 
4 33 34 25 17 
4 55 71 85 83 
4 21 30 49 50 
4 84 85 86 87 
4 29 30 49 48 
4 109 106 64 10 
4 67 66 32 31 
4 48 49 66 67 
4 64 65 7 10 
4 31 67 106 109 
4 109 108 7 10 
4 52 53 65 64 
4 8 15 45 44 
4 31 32 108 109 
4 15 20 38 45 
4 108 107 65 7 
4 8 19 40 44 
4 32 66 107 108 
4 44 45 38 40 
4 28 29 37 46 
4 107 106 64 65 
4 15 28 46 45 
4 66 67 106 107 
4 46 37 38 45 
4 9 22 43 47 
4 102 103 104 105 
4 102 105 52 22 
4 87 84 73 2 
4 29 48 105 102 
4 41 70 84 87 
4 24 25 56 57 
4 86 87 2 16 
4 105 104 53 52 
4 39 41 87 86 
4 48 49 104 105 
4 19 20 51 58 
4 86 85 72 16 
4 20 38 55 51 
4 39 71 85 86 
4 19 40 54 58 
4 84 85 72 73 
4 58 51 55 54 
4 18 19 58 59 
4 70 71 85 84 
4 18 21 50 59 
4 80 81 82 83 
4 59 58 51 50 
4 37 38 55 60 
4 80 83 56 25 
4 103 104 53 23 
4 38 55 83 80 
4 25 34 61 56 
4 82 83 56 57 
4 30 49 104 103 
4 29 37 60 48 
4 54 55 83 82 
4 51 48 60 55 
4 81 82 57 24 
4 22 43 62 52 
4 40 54 82 81 
4 80 81 24 25 
4 100 101 102 103 
4 38 40 81 80 
4 100 103 23 4 
4 27 30 103 100 
4 51 58 74 69 
4 69 74 11 14 
4 51 55 71 69 
4 69 71 39 14 
4 54 58 74 70 
4 70 74 11 41 
4 74 69 71 70 
4 58 59 75 74 
4 74 75 3 11 
4 50 59 75 68 
4 68 75 3 13 
4 75 74 69 68 
4 55 60 76 71 
4 71 76 36 39 
4 102 103 23 22 
4 29 30 103 102 
4 56 61 77 72 
4 72 77 35 16 
4 101 102 22 9 
4 48 60 76 67 
4 67 76 36 31 
4 69 67 76 71 
4 52 62 78 64 
4 64 78 42 10 
4 28 29 102 101 
4 100 101 9 4 
4 27 28 101 100 
4 88 89 17 1 
4 38 45 89 80 
4 80 89 17 25 
4 40 44 88 81 
4 81 88 1 24 
4 88 89 80 81 
4 37 46 90 91 
4 91 90 33 34 
4 37 38 80 91 
4 91 80 25 34 
4 45 46 90 89 
4 89 90 33 17 
4 90 91 80 89 
4 43 47 92 93 
4 93 92 5 26 
4 55 60 94 83 
4 83 94 61 56 
4 37 60 94 91 
4 91 94 61 34 
4 91 80 83 94 
4 43 62 95 93 
4 93 95 63 26 
4 60 76 96 94 
4 94 96 77 61 
4 71 76 96 85 
4 85 96 77 72 
4 83 94 96 85 
4 36 76 96 97 
4 97 96 77 35 
4 36 39 86 97 
4 97 86 16 35 
4 85 96 97 86 
4 62 78 98 95 
4 95 98 79 63 
4 42 78 98 99 
4 99 98 79 6 
4 102 110 43 22 
4 37 46 111 110 
4 110 111 47 43 
4 28 46 111 101 
4 101 111 47 9 
4 101 102 110 111 
4 37 60 112 110 
4 110 112 62 43 
4 48 60 112 105 
4 105 112 62 52 
4 102 110 112 105 
4 60 76 113 112 
4 112 113 78 62 
4 67 76 113 106 
4 106 113 78 64 
4 105 112 113 106 
4 36 76 113 114 
4 114 113 78 42 
4 31 36 114 109 
4 109 114 42 10 
4 106 113 114 109 
4 46 90 115 111 
4 111 115 92 47 
4 90 91 116 115 
4 115 116 93 92 
4 37 91 116 110 
4 110 116 93 43 
4 110 111 115 116 
4 33 90 115 117 
4 117 115 92 5 
4 33 34 118 117 
4 117 118 26 5 
4 34 91 116 118 
4 118 116 93 26 
4 116 115 117 118 
4 60 94 119 112 
4 112 119 95 62 
4 91 94 119 116 
4 116 119 95 93 
4 110 112 119 116 
4 61 94 119 120 
4 120 119 95 63 
4 34 61 120 118 
4 118 120 63 26 
4 116 119 120 118 
4 76 96 121 113 
4 113 121 98 78 
4 94 96 121 119 
4 119 121 98 95 
4 112 113 121 119 
4 77 96 121 122 
4 122 121 98 79 
4 61 77 122 120 
4 120 122 79 63 
4 119 121 122 120 
4 96 97 123 121 
4 121 123 99 98 
4 36 97 123 114 
4 114 123 99 42 
4 114 113 121 123 
4 35 77 122 124 
4 124 122 79 6 
4 35 97 123 124 
4 124 123 99 6 
4 123 121 122 124 

CELL_TYPES 240
9 
9 
9 
9 
9 
9 
9 
9 
9 
9 
9 
9 
9 
9 
9 
9 
9 
9 
9 
9 
9 
9 
9 
9 
9 
9 
9 
9 
9 
9 
9 
9 
9 
9 
9 
9 
9 
9 
9 
9 
9 
9 
9 
9 
9 
9 
9 
9 
9 
9 
9 
9 
9 
9 
9 
9 
9 
9 
9 
9 
9 
9 
9 
9 
9 
9 
9 
9 
9 
9 
9 
9 
9 
9 
9 
9 
9 
9 
9 
9 
9 
9 
9 
9 
9 
9 
9 
9 
9 
9 
9 
9 
9 
9 
9 
9 
9 
9 
9 
9 
9 
9 
9 
9 
9 
9 
9 
9 
9 
9 
9 
9 
9 
9 
9 
9 
9 
9 
9 
9 
9 
9 
9 
9 
9 
9 
9 
9 
9 
9 
9 
9 
9 
9 
9 
9 
9 
9 
9 
9 
9 
9 
9 
9 
9 
9 
9 
9 
9 
9 
9 
9 
9 
9 
9 
9 
9 
9 
9 
9 
9 
9 
9 
9 
9 
9 
9 
9 
9 
9 
9 
9 
9 
9 
9 
9 
9 
9 
9 
9 
9 
9 
9 
9 
9 
9 
9 
9 
9 
9 
9 
9 
9 
9 
9 
9 
9 
9 
9 
9 
9 
9 
9 
9 
9 
9 
9 
9 
9 
9 
9 
9 
9 
9 
9 
9 
9 
9 
9 
9 
9 
9 
9 
9 
9 
9 
9 
9 
9 
9 
9 
9 
9 
9 
9 
9 
9 
9 
9 
9 
POINT_DATA 125
SCALARS GMDS_ID int 1
LOOKUP_TABLE default
0 1 2 3 4 5 6 7 8 9 10 11 12 13 14 15 16 17 18 19 20 21 22 23 24 25 26 27 28 29 30 31 32 33 34 35 36 37 38 39 40 41 42 43 44 45 46 47 48 49 50 51 52 53 54 55 56 57 58 59 60 61 62 63 64 65 66 67 68 69 70 71 72 73 74 75 76 77 78 79 80 81 82 83 84 85 86 87 88 89 90 91 92 93 94 95 96 97 98 99 100 101 102 103 104 105 106 107 108 109 110 111 112 113 114 115 116 117 118 119 120 121 122 123 124 
SCALARS geom_link_dim_0 int 1
LOOKUP_TABLE default
0 0 0 0 0 0 0 0 0 0 0 0 0 0 0 0 0 0 0 0 0 0 0 0 0 0 0 0 0 0 0 0 0 0 0 0 0 0 0 0 0 0 0 0 0 0 0 0 0 0 0 0 0 0 0 0 0 0 0 0 0 0 0 0 0 0 0 0 0 0 0 0 0 0 0 0 0 0 0 0 0 0 0 0 0 0 0 0 0 0 0 0 0 0 0 0 0 0 0 0 0 0 0 0 0 0 0 0 0 0 0 0 0 0 0 0 0 0 0 0 0 0 0 0 0 
SCALARS geom_link_id_0 int 1
LOOKUP_TABLE default
0 0 0 0 0 0 0 0 0 0 0 0 0 0 0 0 0 0 0 0 0 0 0 0 0 0 0 0 0 0 0 0 0 0 0 0 0 0 0 0 0 0 0 0 0 0 0 0 0 0 0 0 0 0 0 0 0 0 0 0 0 0 0 0 0 0 0 0 0 0 0 0 0 0 0 0 0 0 0 0 0 0 0 0 0 0 0 0 0 0 0 0 0 0 0 0 0 0 0 0 0 0 0 0 0 0 0 0 0 0 0 0 0 0 0 0 0 0 0 0 0 0 0 0 0 


CELL_DATA 240
SCALARS GMDS_ID int 1
LOOKUP_TABLE default
0 1 2 4 5 6 7 8 9 10 11 12 14 15 17 18 19 20 21 23 25 27 28 29 30 31 32 33 34 35 36 38 40 41 42 43 44 45 46 47 48 49 50 52 53 54 55 57 58 59 60 63 64 65 66 69 71 73 74 75 76 77 78 79 80 81 82 83 84 85 86 87 88 90 92 93 94 95 96 97 98 99 100 101 102 103 104 105 106 107 108 109 110 111 112 113 114 115 116 117 118 119 120 121 123 124 125 128 129 130 131 132 133 134 135 136 137 138 139 140 141 142 143 144 145 146 147 148 149 150 151 152 153 154 157 158 162 163 164 165 166 167 168 169 170 171 172 173 174 175 176 177 178 179 185 186 187 188 189 190 191 195 196 197 198 199 200 201 202 203 204 205 206 210 211 215 216 217 218 219 220 221 222 223 224 225 226 227 228 229 230 231 232 233 234 235 236 237 238 239 240 241 242 243 244 245 246 247 248 249 250 251 252 253 254 255 256 257 258 259 260 261 262 263 264 265 266 267 268 269 270 271 272 273 274 275 276 277 278 279 

SCALARS geom_link_dim_0 int 1
LOOKUP_TABLE default
0 0 0 0 0 0 0 0 0 0 0 0 0 0 0 0 0 0 0 0 0 0 0 0 0 0 0 0 0 0 0 0 0 0 0 0 0 0 0 0 0 0 0 0 0 0 0 0 0 0 0 0 0 0 0 0 0 0 0 0 0 0 0 0 0 0 0 0 0 0 0 0 0 0 0 0 0 0 0 0 0 0 0 0 0 0 0 0 0 0 0 0 0 0 0 0 0 0 0 0 0 0 0 0 0 0 0 0 0 0 0 0 0 0 0 0 0 0 0 0 0 0 0 0 0 0 0 0 0 0 0 0 0 0 0 0 0 0 0 0 0 0 0 0 0 0 0 0 0 0 0 0 0 0 0 0 0 0 0 0 0 0 0 0 0 0 0 0 0 0 0 0 0 0 0 0 0 0 0 0 0 0 0 0 0 0 0 0 0 0 0 0 0 0 0 0 0 0 0 0 0 0 0 0 0 0 0 0 0 0 0 0 0 0 0 0 0 0 0 0 0 0 0 0 0 0 0 0 0 0 0 0 0 0 0 0 0 0 0 0 

SCALARS geom_link_id_0 int 1
LOOKUP_TABLE default
0 0 0 0 0 0 0 0 0 0 0 0 0 0 0 0 0 0 0 0 0 0 0 0 0 0 0 0 0 0 0 0 0 0 0 0 0 0 0 0 0 0 0 0 0 0 0 0 0 0 0 0 0 0 0 0 0 0 0 0 0 0 0 0 0 0 0 0 0 0 0 0 0 0 0 0 0 0 0 0 0 0 0 0 0 0 0 0 0 0 0 0 0 0 0 0 0 0 0 0 0 0 0 0 0 0 0 0 0 0 0 0 0 0 0 0 0 0 0 0 0 0 0 0 0 0 0 0 0 0 0 0 0 0 0 0 0 0 0 0 0 0 0 0 0 0 0 0 0 0 0 0 0 0 0 0 0 0 0 0 0 0 0 0 0 0 0 0 0 0 0 0 0 0 0 0 0 0 0 0 0 0 0 0 0 0 0 0 0 0 0 0 0 0 0 0 0 0 0 0 0 0 0 0 0 0 0 0 0 0 0 0 0 0 0 0 0 0 0 0 0 0 0 0 0 0 0 0 0 0 0 0 0 0 0 0 0 0 0 0 

