# vtk DataFile Version 3.0
Generated by GMDS VTK Writer

ASCII
DATASET UNSTRUCTURED_GRID
POINTS 27 float
0 0 0
0 10 0
10 10 0
10 0 0
0 0 10
0 10 10
10 10 10
10 0 10
0 1 0
0 1 10
10 1 10
10 1 0
0 0 1
10 0 1
10 1 1
0 1 1
10 10 1
0 10 1
1 0 0
1 1 0
1 1 1
1 0 1
1 1 10
1 0 10
1 10 0
1 10 1
1 10 10

CELLS 36 180
4 13 14 10 7 
4 3 11 14 13 
4 0 12 21 18 
4 21 20 14 13 
4 12 15 20 21 
4 19 20 14 11 
4 8 15 20 19 
4 18 19 11 3 
4 0 8 19 18 
4 0 8 15 12 
4 12 15 9 4 
4 2 11 14 16 
4 16 14 10 6 
4 1 8 15 17 
4 17 15 9 5 
4 18 21 13 3 
4 18 19 20 21 
4 9 15 20 22 
4 22 20 14 10 
4 4 9 22 23 
4 23 22 10 7 
4 4 12 21 23 
4 23 21 13 7 
4 21 20 22 23 
4 1 8 19 24 
4 24 19 11 2 
4 15 17 25 20 
4 20 25 16 14 
4 1 17 25 24 
4 24 25 16 2 
4 24 19 20 25 
4 5 9 22 26 
4 26 22 10 6 
4 5 17 25 26 
4 26 25 16 6 
4 25 20 22 26 

CELL_TYPES 36
9 
9 
9 
9 
9 
9 
9 
9 
9 
9 
9 
9 
9 
9 
9 
9 
9 
9 
9 
9 
9 
9 
9 
9 
9 
9 
9 
9 
9 
9 
9 
9 
9 
9 
9 
9 
POINT_DATA 27
SCALARS GMDS_ID int 1
LOOKUP_TABLE default
0 1 2 3 4 5 6 7 8 9 10 11 12 13 14 15 16 17 18 19 20 21 22 23 24 25 26 
SCALARS geom_link_dim_0 int 1
LOOKUP_TABLE default
0 0 0 0 0 0 0 0 0 0 0 0 0 0 0 0 0 0 0 0 0 0 0 0 0 0 0 
SCALARS geom_link_id_0 int 1
LOOKUP_TABLE default
0 0 0 0 0 0 0 0 0 0 0 0 0 0 0 0 0 0 0 0 0 0 0 0 0 0 0 


CELL_DATA 36
SCALARS GMDS_ID int 1
LOOKUP_TABLE default
0 1 2 4 6 7 10 11 14 17 18 20 21 24 25 27 28 29 30 31 32 33 34 35 36 37 38 39 40 41 42 43 44 45 46 47 

SCALARS geom_link_dim_0 int 1
LOOKUP_TABLE default
0 0 0 0 0 0 0 0 0 0 0 0 0 0 0 0 0 0 0 0 0 0 0 0 0 0 0 0 0 0 0 0 0 0 0 0 

SCALARS geom_link_id_0 int 1
LOOKUP_TABLE default
0 0 0 0 0 0 0 0 0 0 0 0 0 0 0 0 0 0 0 0 0 0 0 0 0 0 0 0 0 0 0 0 0 0 0 0 

