# vtk DataFile Version 3.0
Generated by GMDS VTK Writer

ASCII
DATASET UNSTRUCTURED_GRID
POINTS 125 float
0 0 0
0 10 0
10 10 0
10 0 0
0 0 10
0 10 10
10 10 10
10 0 10
6 0 0
6 10 0
6 10 10
6 0 10
0 0 8
0 10 8
6 10 8
6 0 8
10 10 8
10 0 8
0 0 6
0 10 6
6 10 6
6 0 6
10 10 6
10 0 6
0 6 0
6 6 0
6 6 6
0 6 6
0 6 8
6 6 8
6 6 10
0 6 10
10 6 8
10 6 10
10 6 0
10 6 6
8 6 0
8 6 6
8 10 6
8 10 0
8 0 0
8 0 6
8 0 10
8 0 8
8 6 8
8 6 10
8 10 8
8 10 10
0 4 0
6 4 0
6 4 6
0 4 6
6 4 10
6 4 8
8 4 8
8 4 10
8 4 0
8 4 6
10 4 6
10 4 0
0 4 8
0 4 10
10 4 8
10 4 10
8 10 4
8 6 4
10 6 4
10 10 4
6 10 4
6 6 4
0 6 4
0 10 4
0 4 4
6 4 4
0 0 4
6 0 4
10 0 4
8 0 4
8 4 4
10 4 4
1 10 4
1 6 4
1 6 6
1 10 6
1 10 0
1 6 0
1 6 10
1 6 8
1 10 8
1 10 10
1 0 10
1 0 8
1 4 8
1 4 10
1 0 6
1 4 6
1 4 0
1 4 4
1 0 0
1 0 4
1 8 8
1 8 10
6 8 10
6 8 8
0 8 8
0 8 10
1 8 0
1 8 4
6 8 4
6 8 0
8 8 4
8 8 6
6 8 6
8 8 0
0 8 0
0 8 4
8 8 10
8 8 8
10 8 10
10 8 8
10 8 4
10 8 6
10 8 0
1 8 6
0 8 6

CELLS 240 1200
4 112 111 38 20 
4 26 37 111 112 
4 11 15 43 42 
4 111 110 64 38 
4 37 65 110 111 
4 110 108 68 64 
4 65 69 108 110 
4 106 107 108 109 
4 89 88 14 10 
4 5 13 88 89 
4 109 106 84 9 
4 25 85 106 109 
4 109 108 68 9 
4 52 55 45 30 
4 25 69 108 109 
4 87 86 30 29 
4 11 42 55 52 
4 28 31 86 87 
4 108 107 80 68 
4 55 54 44 45 
4 42 43 54 55 
4 53 54 44 29 
4 15 43 54 53 
4 84 80 68 9 
4 1 71 80 84 
4 85 81 69 25 
4 68 64 38 20 
4 69 81 107 108 
4 9 39 64 68 
4 69 65 37 26 
4 107 106 84 80 
4 25 36 65 69 
4 81 85 106 107 
4 52 53 29 30 
4 11 15 53 52 
4 24 70 81 85 
4 104 105 101 100 
4 104 100 88 13 
4 28 87 100 104 
4 83 80 68 20 
4 67 64 38 22 
4 19 71 80 83 
4 105 101 89 5 
4 2 39 64 67 
4 31 86 101 105 
4 42 43 17 7 
4 29 30 45 44 
4 44 45 33 32 
4 66 65 37 35 
4 34 36 65 66 
4 10 14 46 47 
4 47 46 16 6 
4 15 21 41 43 
4 43 41 23 17 
4 26 29 44 37 
4 37 44 32 35 
4 14 20 38 46 
4 46 38 22 16 
4 52 53 54 55 
4 23 41 57 58 
4 58 57 37 35 
4 82 81 69 26 
4 27 70 81 82 
4 3 40 56 59 
4 59 56 36 34 
4 21 41 57 50 
4 50 57 37 26 
4 8 40 56 49 
4 49 56 36 25 
4 104 105 5 13 
4 28 31 105 104 
4 100 101 102 103 
4 103 100 88 14 
4 4 12 60 61 
4 61 60 28 31 
4 29 87 100 103 
4 15 21 50 53 
4 53 50 26 29 
4 12 18 51 60 
4 60 51 27 28 
4 103 102 10 14 
4 17 43 54 62 
4 62 54 44 32 
4 7 17 62 63 
4 63 62 32 33 
4 7 42 55 63 
4 63 55 45 33 
4 55 54 62 63 
4 41 43 54 57 
4 57 54 44 37 
4 53 50 57 54 
4 17 23 58 62 
4 62 58 35 32 
4 54 57 58 62 
4 29 30 102 103 
4 25 49 73 69 
4 69 73 50 26 
4 24 48 72 70 
4 70 72 51 27 
4 102 101 89 10 
4 30 86 101 102 
4 101 100 88 89 
4 8 49 73 75 
4 75 73 50 21 
4 0 48 72 74 
4 74 72 51 18 
4 86 87 100 101 
4 3 40 77 76 
4 76 77 41 23 
4 40 56 78 77 
4 77 78 57 41 
4 56 59 79 78 
4 78 79 58 57 
4 3 59 79 76 
4 76 79 58 23 
4 76 77 78 79 
4 36 56 78 65 
4 65 78 57 37 
4 34 59 79 66 
4 66 79 58 35 
4 79 78 65 66 
4 8 40 77 75 
4 75 77 41 21 
4 49 56 78 73 
4 73 78 57 50 
4 75 77 78 73 
4 73 78 65 69 
4 27 28 87 82 
4 82 87 29 26 
4 13 19 83 88 
4 88 83 20 14 
4 4 12 91 90 
4 90 91 15 11 
4 12 60 92 91 
4 91 92 53 15 
4 60 61 93 92 
4 92 93 52 53 
4 4 61 93 90 
4 90 93 52 11 
4 90 91 92 93 
4 28 60 92 87 
4 87 92 53 29 
4 31 61 93 86 
4 86 93 52 30 
4 93 92 87 86 
4 12 18 94 91 
4 91 94 21 15 
4 18 51 95 94 
4 94 95 50 21 
4 51 60 92 95 
4 95 92 53 50 
4 91 94 95 92 
4 27 51 95 82 
4 82 95 50 26 
4 92 95 82 87 
4 24 48 96 85 
4 85 96 49 25 
4 48 72 97 96 
4 96 97 73 49 
4 70 72 97 81 
4 81 97 73 69 
4 85 96 97 81 
4 51 72 97 95 
4 95 97 73 50 
4 81 97 95 82 
4 0 48 96 98 
4 98 96 49 8 
4 72 74 99 97 
4 97 99 75 73 
4 0 74 99 98 
4 98 99 75 8 
4 98 96 97 99 
4 18 74 99 94 
4 94 99 75 21 
4 99 97 95 94 
4 26 69 108 112 
4 112 108 68 20 
4 108 110 111 112 
4 25 36 113 109 
4 109 113 39 9 
4 36 65 110 113 
4 113 110 64 39 
4 109 113 110 108 
4 24 70 115 114 
4 114 115 71 1 
4 70 81 107 115 
4 115 107 80 71 
4 24 85 106 114 
4 114 106 84 1 
4 114 115 107 106 
4 30 45 116 102 
4 102 116 47 10 
4 44 45 116 117 
4 117 116 47 46 
4 29 44 117 103 
4 103 117 46 14 
4 103 102 116 117 
4 33 45 116 118 
4 118 116 47 6 
4 32 33 118 119 
4 119 118 6 16 
4 32 44 117 119 
4 119 117 46 16 
4 117 116 118 119 
4 65 66 120 110 
4 110 120 67 64 
4 35 37 111 121 
4 121 111 38 22 
4 35 66 120 121 
4 121 120 67 22 
4 120 110 111 121 
4 34 36 113 122 
4 122 113 39 2 
4 34 66 120 122 
4 122 120 67 2 
4 122 113 110 120 
4 26 29 103 112 
4 112 103 14 20 
4 37 44 117 111 
4 111 117 46 38 
4 112 103 117 111 
4 32 35 121 119 
4 119 121 22 16 
4 111 117 119 121 
4 81 82 123 107 
4 107 123 83 80 
4 26 82 123 112 
4 112 123 83 20 
4 123 107 108 112 
4 27 70 115 124 
4 124 115 71 19 
4 27 82 123 124 
4 124 123 83 19 
4 124 115 107 123 
4 27 28 104 124 
4 124 104 13 19 
4 82 87 100 123 
4 123 100 88 83 
4 124 104 100 123 
4 123 100 103 112 

CELL_TYPES 240
9 
9 
9 
9 
9 
9 
9 
9 
9 
9 
9 
9 
9 
9 
9 
9 
9 
9 
9 
9 
9 
9 
9 
9 
9 
9 
9 
9 
9 
9 
9 
9 
9 
9 
9 
9 
9 
9 
9 
9 
9 
9 
9 
9 
9 
9 
9 
9 
9 
9 
9 
9 
9 
9 
9 
9 
9 
9 
9 
9 
9 
9 
9 
9 
9 
9 
9 
9 
9 
9 
9 
9 
9 
9 
9 
9 
9 
9 
9 
9 
9 
9 
9 
9 
9 
9 
9 
9 
9 
9 
9 
9 
9 
9 
9 
9 
9 
9 
9 
9 
9 
9 
9 
9 
9 
9 
9 
9 
9 
9 
9 
9 
9 
9 
9 
9 
9 
9 
9 
9 
9 
9 
9 
9 
9 
9 
9 
9 
9 
9 
9 
9 
9 
9 
9 
9 
9 
9 
9 
9 
9 
9 
9 
9 
9 
9 
9 
9 
9 
9 
9 
9 
9 
9 
9 
9 
9 
9 
9 
9 
9 
9 
9 
9 
9 
9 
9 
9 
9 
9 
9 
9 
9 
9 
9 
9 
9 
9 
9 
9 
9 
9 
9 
9 
9 
9 
9 
9 
9 
9 
9 
9 
9 
9 
9 
9 
9 
9 
9 
9 
9 
9 
9 
9 
9 
9 
9 
9 
9 
9 
9 
9 
9 
9 
9 
9 
9 
9 
9 
9 
9 
9 
9 
9 
9 
9 
9 
9 
9 
9 
9 
9 
9 
9 
9 
9 
9 
9 
9 
9 
POINT_DATA 125
SCALARS GMDS_ID int 1
LOOKUP_TABLE default
0 1 2 3 4 5 6 7 8 9 10 11 12 13 14 15 16 17 18 19 20 21 22 23 24 25 26 27 28 29 30 31 32 33 34 35 36 37 38 39 40 41 42 43 44 45 46 47 48 49 50 51 52 53 54 55 56 57 58 59 60 61 62 63 64 65 66 67 68 69 70 71 72 73 74 75 76 77 78 79 80 81 82 83 84 85 86 87 88 89 90 91 92 93 94 95 96 97 98 99 100 101 102 103 104 105 106 107 108 109 110 111 112 113 114 115 116 117 118 119 120 121 122 123 124 
SCALARS geom_link_dim int 1
LOOKUP_TABLE default
1 1 1 1 1 1 1 1 2 2 2 2 2 2 3 3 2 2 2 2 3 3 2 2 2 3 0 3 3 0 3 2 3 2 2 3 3 0 3 2 2 3 2 3 0 3 3 2 2 3 0 3 3 0 0 3 3 0 3 2 3 2 3 2 3 0 3 2 3 0 3 2 3 0 2 3 2 3 0 3 3 0 0 3 2 3 3 0 3 2 2 3 0 3 3 0 3 0 2 3 0 3 3 0 3 2 3 0 0 3 0 0 0 3 2 3 3 0 2 3 3 3 2 0 3 
SCALARS geom_link_id int 1
LOOKUP_TABLE default
10 12 16 13 9 11 15 14 20 30 25 28 21 32 17 12 27 33 21 32 17 12 27 33 19 11 0 10 10 0 18 29 13 26 31 13 11 0 17 30 20 12 28 12 0 18 17 25 19 11 0 10 18 0 0 18 11 0 13 31 10 29 13 26 17 0 13 27 17 0 10 32 10 0 21 12 33 12 0 13 17 0 0 17 30 11 18 0 17 25 28 12 0 18 12 0 11 0 20 12 -1 18 18 -1 10 29 11 -1 -1 11 -1 -1 -1 11 19 10 18 -1 26 13 13 13 31 -1 10 


CELL_DATA 240
SCALARS GMDS_ID int 1
LOOKUP_TABLE default
0 2 3 4 5 8 9 10 12 13 15 18 20 21 22 23 25 26 27 29 30 33 34 35 36 37 38 39 40 42 43 44 46 47 48 49 58 59 60 62 63 64 65 66 68 69 72 73 74 75 79 80 84 85 86 87 89 90 92 95 96 97 98 99 100 102 103 104 105 107 108 109 110 111 112 113 114 115 116 117 118 119 120 121 122 123 124 125 126 127 128 129 130 131 132 133 134 135 136 137 138 139 140 141 142 143 144 145 146 147 148 149 150 151 152 153 154 155 156 157 158 159 160 161 162 163 164 166 167 168 169 171 172 173 174 175 176 177 178 179 180 181 182 183 184 185 186 187 188 189 190 191 192 193 194 195 196 197 198 199 200 201 202 203 204 205 206 207 208 209 210 211 212 213 214 215 216 217 218 219 220 221 222 223 224 225 226 227 228 229 230 231 232 233 234 235 236 237 238 239 240 241 242 243 244 245 246 247 248 249 250 251 252 253 254 255 256 257 258 259 260 261 262 263 264 265 266 267 268 269 270 271 272 273 274 275 276 277 278 279 

SCALARS geom_link_dim int 1
LOOKUP_TABLE default
0 0 0 0 0 0 0 0 0 0 0 0 0 0 0 0 0 0 0 0 0 0 0 0 0 0 0 0 0 0 0 0 0 0 0 0 0 0 0 0 0 0 0 0 0 0 0 0 0 0 0 0 0 0 0 0 0 0 0 0 0 0 0 0 0 0 0 0 0 0 0 0 0 0 0 0 0 0 0 0 0 0 0 0 0 0 0 0 0 0 0 0 0 0 0 0 0 0 0 0 0 0 0 0 0 0 0 0 0 0 0 0 0 0 0 0 0 0 0 0 0 0 0 0 0 0 0 0 0 0 0 0 0 0 0 0 0 0 0 0 0 0 0 0 0 0 0 0 0 0 0 0 0 0 0 0 0 0 0 0 0 0 0 0 0 0 0 0 0 0 0 0 0 0 0 0 0 0 0 0 0 0 0 0 0 0 0 0 0 0 0 0 0 0 0 0 0 0 0 0 0 0 0 0 0 0 0 0 0 0 0 0 0 0 0 0 0 0 0 0 0 0 0 0 0 0 0 0 0 0 0 0 0 0 0 0 0 0 0 0 

SCALARS geom_link_id int 1
LOOKUP_TABLE default
-1 -1 0 -1 -1 -1 -1 -1 0 0 -1 -1 -1 0 -1 0 0 0 -1 0 0 0 0 0 0 0 0 -1 0 0 -1 0 -1 0 0 0 -1 -1 -1 0 0 0 -1 0 -1 0 0 0 0 0 0 0 0 0 0 0 0 0 0 0 0 0 0 0 0 0 0 0 0 -1 -1 -1 -1 0 0 -1 0 0 0 0 -1 0 0 0 0 0 0 0 0 0 0 0 0 0 -1 0 0 0 0 -1 -1 -1 0 0 0 0 -1 0 0 0 0 0 0 0 0 0 0 0 0 0 0 0 0 0 0 0 0 0 0 0 0 0 0 0 0 0 0 0 0 0 0 0 0 0 0 0 0 0 0 0 0 0 0 0 0 0 0 0 0 0 0 0 0 0 0 0 0 0 0 0 0 0 0 0 0 -1 -1 -1 -1 -1 -1 -1 -1 -1 -1 -1 -1 -1 -1 -1 -1 -1 -1 -1 -1 -1 -1 -1 -1 -1 -1 -1 -1 -1 -1 -1 -1 -1 -1 -1 -1 -1 -1 -1 -1 -1 -1 -1 -1 -1 -1 -1 -1 -1 -1 -1 -1 -1 -1 -1 -1 -1 -1 -1 -1 -1 -1 -1 -1 -1 

