# vtk DataFile Version 3.0
Generated by GMDS VTK Writer

ASCII
DATASET UNSTRUCTURED_GRID
POINTS 100 float
0 0 0
0 10 0
10 10 0
10 0 0
0 0 10
0 10 10
10 10 10
10 0 10
0 1 0
0 1 10
10 1 10
10 1 0
0 0 1
10 0 1
10 1 1
0 1 1
10 10 1
0 10 1
1 0 0
1 1 0
1 1 1
1 0 1
1 1 10
1 0 10
1 10 0
1 10 1
1 10 10
0 0 4
0 1 4
1 1 4
1 0 4
10 1 4
10 0 4
0 10 4
1 10 4
10 10 4
10 4 4
1 4 4
1 4 1
10 4 1
1 4 0
10 4 0
10 4 10
1 4 10
0 4 0
0 4 1
0 4 4
0 4 10
4 1 4
4 0 4
4 0 1
4 1 1
4 1 10
4 0 10
4 4 0
4 4 1
4 10 1
4 10 0
4 1 0
4 0 0
4 4 4
4 10 4
4 4 10
4 10 10
6 1 10
6 0 10
6 0 4
6 1 4
6 0 1
6 1 1
6 4 0
6 4 1
6 10 1
6 10 0
6 1 0
6 0 0
6 4 4
6 10 4
6 4 10
6 10 10
1 6 1
1 6 0
4 6 0
4 6 1
6 6 0
6 6 1
10 6 1
10 6 0
0 6 0
0 6 1
0 6 4
1 6 4
0 6 10
1 6 10
4 6 4
4 6 10
6 6 4
10 6 4
6 6 10
10 6 10

CELLS 184 920
4 11 14 39 41 
4 3 11 14 13 
4 0 12 21 18 
4 7 10 31 32 
4 12 15 20 21 
4 72 73 2 16 
4 56 57 73 72 
4 27 28 29 30 
4 8 15 20 19 
4 27 30 21 12 
4 4 23 30 27 
4 0 8 19 18 
4 29 30 21 20 
4 22 23 30 29 
4 0 8 15 12 
4 28 29 20 15 
4 38 40 54 55 
4 19 20 38 40 
4 9 22 29 28 
4 27 28 15 12 
4 52 53 49 48 
4 4 9 28 27 
4 70 71 39 41 
4 18 19 20 21 
4 14 31 36 39 
4 4 9 22 23 
4 54 55 71 70 
4 67 66 68 69 
4 67 69 14 31 
4 44 45 89 88 
4 22 29 48 52 
4 82 83 85 84 
4 23 30 49 53 
4 1 17 25 24 
4 48 51 69 67 
4 82 84 73 57 
4 22 23 53 52 
4 48 49 50 51 
4 20 29 37 38 
4 68 69 14 13 
4 50 51 69 68 
4 32 31 14 13 
4 66 68 13 32 
4 49 50 68 66 
4 64 65 66 67 
4 54 70 84 82 
4 20 29 48 51 
4 83 85 72 56 
4 20 21 50 51 
4 5 26 34 33 
4 33 34 25 17 
4 55 71 85 83 
4 21 30 49 50 
4 84 85 86 87 
4 67 64 10 31 
4 48 52 64 67 
4 29 30 49 48 
4 67 66 32 31 
4 48 49 66 67 
4 66 65 7 32 
4 49 53 65 66 
4 64 65 7 10 
4 22 29 37 43 
4 10 31 36 42 
4 52 53 65 64 
4 8 15 45 44 
4 15 20 38 45 
4 8 19 40 44 
4 44 45 38 40 
4 28 29 37 46 
4 15 28 46 45 
4 46 37 38 45 
4 9 22 43 47 
4 9 28 46 47 
4 47 43 37 46 
4 87 84 73 2 
4 41 70 84 87 
4 24 25 56 57 
4 86 87 2 16 
4 39 41 87 86 
4 19 20 51 58 
4 86 85 72 16 
4 20 38 55 51 
4 39 71 85 86 
4 19 40 54 58 
4 84 85 72 73 
4 58 51 55 54 
4 18 19 58 59 
4 70 71 85 84 
4 18 21 50 59 
4 80 81 82 83 
4 59 58 51 50 
4 37 38 55 60 
4 80 83 56 25 
4 38 55 83 80 
4 25 34 61 56 
4 82 83 56 57 
4 29 37 60 48 
4 54 55 83 82 
4 51 48 60 55 
4 37 43 62 60 
4 81 82 57 24 
4 22 43 62 52 
4 40 54 82 81 
4 52 48 60 62 
4 26 34 61 63 
4 80 81 24 25 
4 38 40 81 80 
4 51 58 74 69 
4 69 74 11 14 
4 51 55 71 69 
4 69 71 39 14 
4 54 58 74 70 
4 70 74 11 41 
4 74 69 71 70 
4 58 59 75 74 
4 74 75 3 11 
4 50 59 75 68 
4 68 75 3 13 
4 75 74 69 68 
4 55 60 76 71 
4 71 76 36 39 
4 56 61 77 72 
4 72 77 35 16 
4 48 60 76 67 
4 67 76 36 31 
4 69 67 76 71 
4 60 62 78 76 
4 76 78 42 36 
4 52 62 78 64 
4 64 78 42 10 
4 64 67 76 78 
4 61 63 79 77 
4 77 79 6 35 
4 88 89 17 1 
4 38 45 89 80 
4 80 89 17 25 
4 40 44 88 81 
4 81 88 1 24 
4 88 89 80 81 
4 37 46 90 91 
4 91 90 33 34 
4 37 38 80 91 
4 91 80 25 34 
4 45 46 90 89 
4 89 90 33 17 
4 90 91 80 89 
4 43 47 92 93 
4 93 92 5 26 
4 37 43 93 91 
4 91 93 26 34 
4 46 47 92 90 
4 90 92 5 33 
4 92 93 91 90 
4 55 60 94 83 
4 83 94 61 56 
4 37 60 94 91 
4 91 94 61 34 
4 91 80 83 94 
4 43 62 95 93 
4 93 95 63 26 
4 60 62 95 94 
4 94 95 63 61 
4 91 93 95 94 
4 60 76 96 94 
4 94 96 77 61 
4 71 76 96 85 
4 85 96 77 72 
4 83 94 96 85 
4 36 76 96 97 
4 97 96 77 35 
4 36 39 86 97 
4 97 86 16 35 
4 85 96 97 86 
4 62 78 98 95 
4 95 98 79 63 
4 76 78 98 96 
4 96 98 79 77 
4 94 95 98 96 
4 42 78 98 99 
4 99 98 79 6 
4 36 42 99 97 
4 97 99 6 35 
4 96 98 99 97 

CELL_TYPES 184
9 
9 
9 
9 
9 
9 
9 
9 
9 
9 
9 
9 
9 
9 
9 
9 
9 
9 
9 
9 
9 
9 
9 
9 
9 
9 
9 
9 
9 
9 
9 
9 
9 
9 
9 
9 
9 
9 
9 
9 
9 
9 
9 
9 
9 
9 
9 
9 
9 
9 
9 
9 
9 
9 
9 
9 
9 
9 
9 
9 
9 
9 
9 
9 
9 
9 
9 
9 
9 
9 
9 
9 
9 
9 
9 
9 
9 
9 
9 
9 
9 
9 
9 
9 
9 
9 
9 
9 
9 
9 
9 
9 
9 
9 
9 
9 
9 
9 
9 
9 
9 
9 
9 
9 
9 
9 
9 
9 
9 
9 
9 
9 
9 
9 
9 
9 
9 
9 
9 
9 
9 
9 
9 
9 
9 
9 
9 
9 
9 
9 
9 
9 
9 
9 
9 
9 
9 
9 
9 
9 
9 
9 
9 
9 
9 
9 
9 
9 
9 
9 
9 
9 
9 
9 
9 
9 
9 
9 
9 
9 
9 
9 
9 
9 
9 
9 
9 
9 
9 
9 
9 
9 
9 
9 
9 
9 
9 
9 
9 
9 
9 
9 
9 
9 
POINT_DATA 100
SCALARS GMDS_ID int 1
LOOKUP_TABLE default
0 1 2 3 4 5 6 7 8 9 10 11 12 13 14 15 16 17 18 19 20 21 22 23 24 25 26 27 28 29 30 31 32 33 34 35 36 37 38 39 40 41 42 43 44 45 46 47 48 49 50 51 52 53 54 55 56 57 58 59 60 61 62 63 64 65 66 67 68 69 70 71 72 73 74 75 76 77 78 79 80 81 82 83 84 85 86 87 88 89 90 91 92 93 94 95 96 97 98 99 
SCALARS geom_link_dim_0 int 1
LOOKUP_TABLE default
0 0 0 0 0 0 0 0 0 0 0 0 0 0 0 0 0 0 0 0 0 0 0 0 0 0 0 0 0 0 0 0 0 0 0 0 0 0 0 0 0 0 0 0 0 0 0 0 0 0 0 0 0 0 0 0 0 0 0 0 0 0 0 0 0 0 0 0 0 0 0 0 0 0 0 0 0 0 0 0 0 0 0 0 0 0 0 0 0 0 0 0 0 0 0 0 0 0 0 0 
SCALARS geom_link_id_0 int 1
LOOKUP_TABLE default
0 0 0 0 0 0 0 0 0 0 0 0 0 0 0 0 0 0 0 0 0 0 0 0 0 0 0 0 0 0 0 0 0 0 0 0 0 0 0 0 0 0 0 0 0 0 0 0 0 0 0 0 0 0 0 0 0 0 0 0 0 0 0 0 0 0 0 0 0 0 0 0 0 0 0 0 0 0 0 0 0 0 0 0 0 0 0 0 0 0 0 0 0 0 0 0 0 0 0 0 


CELL_DATA 184
SCALARS GMDS_ID int 1
LOOKUP_TABLE default
0 1 2 3 6 7 8 9 10 12 13 14 15 16 17 19 20 21 22 23 24 26 27 28 30 31 32 33 34 36 37 38 39 40 41 42 43 44 45 46 47 48 49 50 51 52 53 54 55 56 57 58 59 60 61 62 63 65 66 67 68 69 70 72 74 75 77 79 81 82 84 86 87 89 91 92 94 95 96 98 100 101 102 103 104 105 106 107 108 109 110 111 112 113 115 116 117 119 120 121 122 123 124 125 126 127 128 130 133 134 135 136 137 138 139 140 141 142 143 144 145 146 149 150 152 153 154 155 156 157 158 159 160 161 165 166 167 168 169 170 171 172 173 174 175 176 177 178 179 180 181 182 183 184 185 186 187 188 189 190 191 192 193 194 195 196 197 198 199 200 201 202 203 204 205 206 207 208 209 210 211 212 213 214 

SCALARS geom_link_dim_0 int 1
LOOKUP_TABLE default
0 0 0 0 0 0 0 0 0 0 0 0 0 0 0 0 0 0 0 0 0 0 0 0 0 0 0 0 0 0 0 0 0 0 0 0 0 0 0 0 0 0 0 0 0 0 0 0 0 0 0 0 0 0 0 0 0 0 0 0 0 0 0 0 0 0 0 0 0 0 0 0 0 0 0 0 0 0 0 0 0 0 0 0 0 0 0 0 0 0 0 0 0 0 0 0 0 0 0 0 0 0 0 0 0 0 0 0 0 0 0 0 0 0 0 0 0 0 0 0 0 0 0 0 0 0 0 0 0 0 0 0 0 0 0 0 0 0 0 0 0 0 0 0 0 0 0 0 0 0 0 0 0 0 0 0 0 0 0 0 0 0 0 0 0 0 0 0 0 0 0 0 0 0 0 0 0 0 0 0 0 0 0 0 

SCALARS geom_link_id_0 int 1
LOOKUP_TABLE default
0 0 0 0 0 0 0 0 0 0 0 0 0 0 0 0 0 0 0 0 0 0 0 0 0 0 0 0 0 0 0 0 0 0 0 0 0 0 0 0 0 0 0 0 0 0 0 0 0 0 0 0 0 0 0 0 0 0 0 0 0 0 0 0 0 0 0 0 0 0 0 0 0 0 0 0 0 0 0 0 0 0 0 0 0 0 0 0 0 0 0 0 0 0 0 0 0 0 0 0 0 0 0 0 0 0 0 0 0 0 0 0 0 0 0 0 0 0 0 0 0 0 0 0 0 0 0 0 0 0 0 0 0 0 0 0 0 0 0 0 0 0 0 0 0 0 0 0 0 0 0 0 0 0 0 0 0 0 0 0 0 0 0 0 0 0 0 0 0 0 0 0 0 0 0 0 0 0 0 0 0 0 0 0 

