# vtk DataFile Version 3.0
Generated by GMDS VTK Writer

ASCII
DATASET UNSTRUCTURED_GRID
POINTS 150 float
0 0 0
0 10 0
10 10 0
10 0 0
0 0 10
0 10 10
10 10 10
10 0 10
6 0 0
6 10 0
6 10 10
6 0 10
0 0 8
0 10 8
6 10 8
6 0 8
10 10 8
10 0 8
0 0 6
0 10 6
6 10 6
6 0 6
10 10 6
10 0 6
0 6 0
6 6 0
6 6 6
0 6 6
0 6 8
6 6 8
6 6 10
0 6 10
10 6 8
10 6 10
10 6 0
10 6 6
8 6 0
8 6 6
8 10 6
8 10 0
8 0 0
8 0 6
8 0 10
8 0 8
8 6 8
8 6 10
8 10 8
8 10 10
0 4 0
6 4 0
6 4 6
0 4 6
6 4 10
6 4 8
8 4 8
8 4 10
8 4 0
8 4 6
10 4 6
10 4 0
0 4 8
0 4 10
10 4 8
10 4 10
8 10 4
8 6 4
10 6 4
10 10 4
6 10 4
6 6 4
0 6 4
0 10 4
0 4 4
6 4 4
0 0 4
6 0 4
10 0 4
8 0 4
8 4 4
10 4 4
1 10 4
1 6 4
1 6 6
1 10 6
1 10 0
1 6 0
1 6 10
1 6 8
1 10 8
1 10 10
1 0 10
1 0 8
1 4 8
1 4 10
1 0 6
1 4 6
1 4 0
1 4 4
1 0 0
1 0 4
1 8 8
1 8 10
6 8 10
6 8 8
0 8 8
0 8 10
1 8 0
1 8 4
6 8 4
6 8 0
8 8 4
8 8 6
6 8 6
8 8 0
0 8 0
0 8 4
8 8 10
8 8 8
10 8 10
10 8 8
10 8 4
10 8 6
10 8 0
1 8 6
0 8 6
4 8 4
4 8 0
4 10 0
4 10 4
4 6 4
4 6 0
4 8 10
4 8 8
4 10 8
4 10 10
4 6 10
4 6 8
4 0 10
4 0 8
4 4 8
4 4 10
4 0 6
4 4 6
4 6 6
4 4 0
4 4 4
4 0 0
4 0 4
4 8 6
4 10 6

CELLS 296 1480
4 112 111 38 20 
4 137 140 52 11 
4 26 37 111 112 
4 11 15 43 42 
4 111 110 64 38 
4 37 65 110 111 
4 90 93 140 137 
4 139 140 52 53 
4 110 108 68 64 
4 65 69 108 110 
4 92 93 140 139 
4 5 13 88 89 
4 138 139 53 15 
4 91 92 139 138 
4 137 138 15 11 
4 90 91 138 137 
4 109 108 68 9 
4 52 55 45 30 
4 25 69 108 109 
4 135 136 132 131 
4 11 42 55 52 
4 28 31 86 87 
4 135 131 102 30 
4 55 54 44 45 
4 42 43 54 55 
4 86 101 131 135 
4 136 132 103 29 
4 53 54 44 29 
4 15 43 54 53 
4 1 71 80 84 
4 68 64 38 20 
4 9 39 64 68 
4 87 100 132 136 
4 69 65 37 26 
4 107 106 84 80 
4 25 36 65 69 
4 135 136 29 30 
4 81 85 106 107 
4 52 53 29 30 
4 11 15 53 52 
4 24 70 81 85 
4 86 87 136 135 
4 131 132 133 134 
4 134 131 102 10 
4 89 101 131 134 
4 133 134 10 14 
4 88 89 134 133 
4 133 132 103 14 
4 88 100 132 133 
4 104 105 101 100 
4 104 100 88 13 
4 28 87 100 104 
4 132 131 102 103 
4 67 64 38 22 
4 19 71 80 83 
4 105 101 89 5 
4 2 39 64 67 
4 100 101 131 132 
4 31 86 101 105 
4 42 43 17 7 
4 129 130 126 125 
4 129 125 108 69 
4 29 30 45 44 
4 44 45 33 32 
4 66 65 37 35 
4 34 36 65 66 
4 81 107 125 129 
4 130 126 109 25 
4 85 106 126 130 
4 10 14 46 47 
4 47 46 16 6 
4 129 130 25 69 
4 81 85 130 129 
4 125 126 127 128 
4 15 21 41 43 
4 43 41 23 17 
4 26 29 44 37 
4 37 44 32 35 
4 128 125 108 68 
4 14 20 38 46 
4 46 38 22 16 
4 80 107 125 128 
4 52 53 54 55 
4 128 127 9 68 
4 80 84 127 128 
4 23 41 57 58 
4 58 57 37 35 
4 27 70 81 82 
4 3 40 56 59 
4 59 56 36 34 
4 127 126 109 9 
4 21 41 57 50 
4 50 57 37 26 
4 8 40 56 49 
4 49 56 36 25 
4 84 106 126 127 
4 104 105 5 13 
4 28 31 105 104 
4 4 12 60 61 
4 61 60 28 31 
4 15 21 50 53 
4 53 50 26 29 
4 12 18 51 60 
4 60 51 27 28 
4 103 102 10 14 
4 17 43 54 62 
4 62 54 44 32 
4 7 17 62 63 
4 63 62 32 33 
4 7 42 55 63 
4 63 55 45 33 
4 55 54 62 63 
4 41 43 54 57 
4 57 54 44 37 
4 53 50 57 54 
4 17 23 58 62 
4 62 58 35 32 
4 54 57 58 62 
4 29 30 102 103 
4 25 49 73 69 
4 69 73 50 26 
4 24 48 72 70 
4 70 72 51 27 
4 101 100 88 89 
4 8 49 73 75 
4 75 73 50 21 
4 0 48 72 74 
4 74 72 51 18 
4 86 87 100 101 
4 3 40 77 76 
4 76 77 41 23 
4 40 56 78 77 
4 77 78 57 41 
4 56 59 79 78 
4 78 79 58 57 
4 3 59 79 76 
4 76 79 58 23 
4 76 77 78 79 
4 36 56 78 65 
4 65 78 57 37 
4 34 59 79 66 
4 66 79 58 35 
4 79 78 65 66 
4 8 40 77 75 
4 75 77 41 21 
4 49 56 78 73 
4 73 78 57 50 
4 75 77 78 73 
4 73 78 65 69 
4 126 125 108 109 
4 27 28 87 82 
4 13 19 83 88 
4 106 107 125 126 
4 4 12 91 90 
4 12 60 92 91 
4 60 61 93 92 
4 4 61 93 90 
4 90 91 92 93 
4 28 60 92 87 
4 31 61 93 86 
4 93 92 87 86 
4 12 18 94 91 
4 18 51 95 94 
4 51 60 92 95 
4 91 94 95 92 
4 27 51 95 82 
4 92 95 82 87 
4 24 48 96 85 
4 48 72 97 96 
4 70 72 97 81 
4 85 96 97 81 
4 51 72 97 95 
4 81 97 95 82 
4 0 48 96 98 
4 72 74 99 97 
4 0 74 99 98 
4 98 96 97 99 
4 18 74 99 94 
4 99 97 95 94 
4 26 69 108 112 
4 112 108 68 20 
4 108 110 111 112 
4 25 36 113 109 
4 109 113 39 9 
4 36 65 110 113 
4 113 110 64 39 
4 109 113 110 108 
4 24 70 115 114 
4 114 115 71 1 
4 70 81 107 115 
4 115 107 80 71 
4 24 85 106 114 
4 114 106 84 1 
4 114 115 107 106 
4 30 45 116 102 
4 102 116 47 10 
4 44 45 116 117 
4 117 116 47 46 
4 29 44 117 103 
4 103 117 46 14 
4 103 102 116 117 
4 33 45 116 118 
4 118 116 47 6 
4 32 33 118 119 
4 119 118 6 16 
4 32 44 117 119 
4 119 117 46 16 
4 117 116 118 119 
4 65 66 120 110 
4 110 120 67 64 
4 35 37 111 121 
4 121 111 38 22 
4 35 66 120 121 
4 121 120 67 22 
4 120 110 111 121 
4 34 36 113 122 
4 122 113 39 2 
4 34 66 120 122 
4 122 120 67 2 
4 122 113 110 120 
4 26 29 103 112 
4 112 103 14 20 
4 37 44 117 111 
4 111 117 46 38 
4 112 103 117 111 
4 32 35 121 119 
4 119 121 22 16 
4 111 117 119 121 
4 81 82 123 107 
4 107 123 83 80 
4 27 70 115 124 
4 124 115 71 19 
4 27 82 123 124 
4 124 123 83 19 
4 124 115 107 123 
4 27 28 104 124 
4 124 104 13 19 
4 82 87 100 123 
4 123 100 88 83 
4 124 104 100 123 
4 137 138 139 140 
4 87 92 139 136 
4 136 139 53 29 
4 86 93 140 135 
4 135 140 52 30 
4 140 139 136 135 
4 91 94 141 138 
4 138 141 21 15 
4 94 95 142 141 
4 141 142 50 21 
4 92 95 142 139 
4 139 142 50 53 
4 138 141 142 139 
4 82 95 142 143 
4 143 142 50 26 
4 82 87 136 143 
4 143 136 29 26 
4 139 142 143 136 
4 85 96 144 130 
4 130 144 49 25 
4 96 97 145 144 
4 144 145 73 49 
4 81 97 145 129 
4 129 145 73 69 
4 130 144 145 129 
4 95 97 145 142 
4 142 145 73 50 
4 81 82 143 129 
4 129 143 26 69 
4 129 145 142 143 
4 96 98 146 144 
4 144 146 8 49 
4 97 99 147 145 
4 145 147 75 73 
4 98 99 147 146 
4 146 147 75 8 
4 146 144 145 147 
4 94 99 147 141 
4 141 147 75 21 
4 147 145 142 141 
4 82 123 148 143 
4 143 148 112 26 
4 107 123 148 125 
4 125 148 112 108 
4 129 143 148 125 
4 83 123 148 149 
4 149 148 112 20 
4 80 83 149 128 
4 128 149 20 68 
4 125 148 149 128 
4 100 123 148 132 
4 132 148 112 103 
4 143 136 132 148 
4 83 88 133 149 
4 149 133 14 20 
4 148 132 133 149 

CELL_TYPES 296
9 
9 
9 
9 
9 
9 
9 
9 
9 
9 
9 
9 
9 
9 
9 
9 
9 
9 
9 
9 
9 
9 
9 
9 
9 
9 
9 
9 
9 
9 
9 
9 
9 
9 
9 
9 
9 
9 
9 
9 
9 
9 
9 
9 
9 
9 
9 
9 
9 
9 
9 
9 
9 
9 
9 
9 
9 
9 
9 
9 
9 
9 
9 
9 
9 
9 
9 
9 
9 
9 
9 
9 
9 
9 
9 
9 
9 
9 
9 
9 
9 
9 
9 
9 
9 
9 
9 
9 
9 
9 
9 
9 
9 
9 
9 
9 
9 
9 
9 
9 
9 
9 
9 
9 
9 
9 
9 
9 
9 
9 
9 
9 
9 
9 
9 
9 
9 
9 
9 
9 
9 
9 
9 
9 
9 
9 
9 
9 
9 
9 
9 
9 
9 
9 
9 
9 
9 
9 
9 
9 
9 
9 
9 
9 
9 
9 
9 
9 
9 
9 
9 
9 
9 
9 
9 
9 
9 
9 
9 
9 
9 
9 
9 
9 
9 
9 
9 
9 
9 
9 
9 
9 
9 
9 
9 
9 
9 
9 
9 
9 
9 
9 
9 
9 
9 
9 
9 
9 
9 
9 
9 
9 
9 
9 
9 
9 
9 
9 
9 
9 
9 
9 
9 
9 
9 
9 
9 
9 
9 
9 
9 
9 
9 
9 
9 
9 
9 
9 
9 
9 
9 
9 
9 
9 
9 
9 
9 
9 
9 
9 
9 
9 
9 
9 
9 
9 
9 
9 
9 
9 
9 
9 
9 
9 
9 
9 
9 
9 
9 
9 
9 
9 
9 
9 
9 
9 
9 
9 
9 
9 
9 
9 
9 
9 
9 
9 
9 
9 
9 
9 
9 
9 
9 
9 
9 
9 
9 
9 
9 
9 
9 
9 
9 
9 
9 
9 
9 
9 
9 
9 
9 
9 
9 
9 
9 
9 
POINT_DATA 150
SCALARS GMDS_ID int 1
LOOKUP_TABLE default
0 1 2 3 4 5 6 7 8 9 10 11 12 13 14 15 16 17 18 19 20 21 22 23 24 25 26 27 28 29 30 31 32 33 34 35 36 37 38 39 40 41 42 43 44 45 46 47 48 49 50 51 52 53 54 55 56 57 58 59 60 61 62 63 64 65 66 67 68 69 70 71 72 73 74 75 76 77 78 79 80 81 82 83 84 85 86 87 88 89 90 91 92 93 94 95 96 97 98 99 100 101 102 103 104 105 106 107 108 109 110 111 112 113 114 115 116 117 118 119 120 121 122 123 124 125 126 127 128 129 130 131 132 133 134 135 136 137 138 139 140 141 142 143 144 145 146 147 148 149 
SCALARS geom_link_dim int 1
LOOKUP_TABLE default
1 1 1 1 1 1 1 1 2 2 2 2 2 2 3 3 2 2 2 2 3 3 2 2 2 3 1 3 3 1 3 2 3 2 2 3 3 1 3 2 2 3 2 3 1 3 3 2 2 3 0 3 3 0 0 3 3 0 3 2 3 2 3 2 3 0 3 2 3 0 3 2 3 0 2 3 2 3 0 3 3 0 0 3 2 3 3 0 3 2 2 3 0 3 3 0 3 0 2 3 0 3 3 1 3 2 3 0 0 3 0 1 1 3 2 3 3 1 2 3 3 3 2 0 3 0 3 2 3 0 3 3 0 3 2 3 0 2 3 0 3 3 0 0 3 0 2 3 0 3 
SCALARS geom_link_id int 1
LOOKUP_TABLE default
10 12 16 13 9 11 15 14 20 30 25 28 21 32 17 12 27 33 21 32 17 12 27 33 19 11 2 10 10 1 18 29 13 26 31 13 11 6 17 30 20 12 28 12 5 18 17 25 19 11 0 10 18 0 0 18 11 0 13 31 10 29 13 26 17 0 13 27 17 0 10 32 10 0 21 12 33 12 0 13 17 0 0 17 30 11 18 0 17 25 28 12 0 18 12 0 11 0 20 12 0 18 18 3 10 29 11 0 0 11 0 8 4 11 19 10 18 7 26 13 13 13 31 0 10 -1 11 30 17 -1 11 18 -1 17 25 18 -1 28 12 -1 18 12 -1 -1 11 -1 20 12 -1 17 


CELL_DATA 296
SCALARS GMDS_ID int 1
LOOKUP_TABLE default
0 1 2 3 4 5 6 7 8 9 11 13 14 16 17 19 20 21 22 24 25 26 28 29 30 31 32 33 34 36 38 40 41 42 43 44 45 46 47 48 49 50 51 52 53 54 55 56 57 58 59 60 61 63 64 65 66 67 68 69 70 71 72 73 74 75 76 77 78 79 80 81 82 83 84 85 86 87 88 89 90 91 92 93 94 95 96 98 99 100 101 102 103 104 105 106 107 108 111 112 114 115 116 117 118 119 120 121 122 123 124 125 126 127 128 129 130 131 132 133 134 135 136 139 140 141 142 143 144 145 146 147 148 149 150 151 152 153 154 155 156 157 158 159 160 161 162 163 164 165 166 168 170 171 173 175 177 179 180 182 184 185 187 189 191 192 194 195 197 199 201 202 204 205 207 209 211 212 214 215 216 217 218 219 220 221 222 223 224 225 226 227 228 229 230 231 232 233 234 235 236 237 238 239 240 241 242 243 244 245 246 247 248 249 250 251 252 253 254 255 256 257 258 259 260 261 262 263 264 265 269 270 271 272 273 274 275 276 277 278 280 281 282 283 284 285 286 287 288 289 290 291 292 293 294 295 296 297 298 299 300 301 302 303 304 305 306 307 308 309 310 311 312 313 314 315 316 317 318 319 320 321 322 323 324 325 326 327 328 329 330 331 332 333 334 335 

SCALARS geom_link_dim int 1
LOOKUP_TABLE default
0 0 0 0 0 0 0 0 0 0 0 0 0 0 0 0 0 0 0 0 0 0 0 0 0 0 0 0 0 0 0 0 0 0 0 0 0 0 0 0 0 0 0 0 0 0 0 0 0 0 0 0 0 0 0 0 0 0 0 0 0 0 0 0 0 0 0 0 0 0 0 0 0 0 0 0 0 0 0 0 0 0 0 0 0 0 0 0 0 0 0 0 0 0 0 0 0 0 0 0 0 0 0 0 0 0 0 0 0 0 0 0 0 0 0 0 0 0 0 0 0 0 0 0 0 0 0 0 0 0 0 0 0 0 0 0 0 0 0 0 0 0 0 0 0 0 0 0 0 0 0 0 0 0 0 0 0 0 0 0 0 0 0 0 0 0 0 0 0 0 0 0 0 0 0 0 0 0 0 0 0 0 0 0 0 0 0 0 0 0 0 0 0 0 0 0 0 0 0 0 0 0 0 0 0 0 0 0 0 0 0 0 0 0 0 0 0 0 0 0 0 0 0 0 0 0 0 0 0 0 0 0 0 0 0 0 0 0 0 0 0 0 0 0 0 0 0 0 0 0 0 0 0 0 0 0 0 0 0 0 0 0 0 0 0 0 0 0 0 0 0 0 0 0 0 0 0 0 0 0 0 0 0 0 0 0 0 0 0 0 0 0 0 0 0 0 

SCALARS geom_link_id int 1
LOOKUP_TABLE default
0 -1 0 0 0 0 -1 -1 0 0 -1 0 -1 -1 -1 -1 0 0 0 -1 0 0 -1 0 0 -1 -1 0 0 0 0 0 -1 0 0 0 -1 0 0 0 0 -1 -1 -1 -1 -1 -1 -1 -1 0 0 0 -1 0 0 0 0 -1 0 0 -1 -1 0 0 0 0 -1 -1 -1 0 0 -1 -1 -1 0 0 0 0 -1 0 0 -1 0 -1 -1 0 0 0 0 0 -1 0 0 0 0 -1 0 0 0 0 0 0 0 0 0 0 0 0 0 0 0 0 0 0 0 0 0 0 0 0 0 0 0 0 0 0 0 0 0 0 0 0 0 0 0 0 0 0 0 0 0 0 0 0 0 0 0 0 0 -1 0 0 -1 0 0 0 0 0 0 0 0 0 0 0 0 0 0 0 0 0 0 0 0 0 0 0 0 0 0 0 0 0 0 0 0 0 0 0 0 0 0 0 0 0 0 0 0 0 0 0 0 0 0 0 0 0 0 0 0 0 0 0 0 0 0 0 0 0 0 0 0 0 0 0 0 0 0 0 0 0 0 0 0 0 0 0 0 0 0 0 -1 -1 -1 -1 -1 -1 -1 -1 -1 -1 -1 -1 -1 -1 -1 -1 -1 -1 -1 -1 -1 -1 -1 -1 -1 -1 -1 -1 -1 -1 -1 -1 -1 -1 -1 -1 -1 -1 -1 -1 -1 -1 -1 -1 -1 -1 -1 -1 -1 -1 -1 -1 -1 -1 -1 -1 

