# vtk DataFile Version 3.0
Generated by GMDS VTK Writer

ASCII
DATASET UNSTRUCTURED_GRID
POINTS 150 float
0 0 0
0 10 0
10 10 0
10 0 0
0 0 10
0 10 10
10 10 10
10 0 10
0 1 0
0 1 10
10 1 10
10 1 0
0 6 0
0 6 10
10 6 10
10 6 0
6 6 0
6 6 10
6 10 10
6 10 0
6 1 0
6 1 10
6 0 0
6 0 10
0 10 1
0 6 1
6 6 1
6 10 1
10 6 1
10 10 1
0 1 1
6 1 1
10 1 1
0 0 1
6 0 1
10 0 1
0 10 8
0 6 8
6 6 8
6 10 8
10 6 8
10 10 8
0 1 8
6 1 8
10 1 8
0 0 8
6 0 8
10 0 8
8 6 0
8 10 0
8 10 1
8 6 1
8 6 8
8 10 8
8 10 10
8 6 10
8 1 0
8 1 1
8 0 0
8 0 1
8 1 8
8 1 10
8 0 8
8 0 10
1 6 1
1 1 1
1 1 8
1 6 8
1 10 0
1 6 0
1 10 1
1 10 8
1 6 10
1 10 10
1 1 0
1 0 0
1 0 1
1 1 10
1 0 8
1 0 10
8 8 10
8 8 8
10 8 8
10 8 10
1 8 10
1 8 8
6 8 8
6 8 10
0 8 10
0 8 8
1 8 0
1 8 1
6 8 1
6 8 0
0 8 0
0 8 1
8 8 0
8 8 1
10 8 1
10 8 0
1 6 6
1 1 6
6 1 6
6 6 6
0 6 6
0 1 6
8 1 6
8 6 6
10 1 6
10 6 6
6 0 6
8 0 6
10 0 6
0 0 6
1 0 6
1 8 6
6 8 6
1 10 6
6 10 6
0 8 6
0 10 6
8 8 6
10 8 6
8 10 6
10 10 6
1 6 4
1 1 4
6 1 4
6 6 4
0 6 4
0 1 4
8 1 4
8 6 4
10 1 4
10 6 4
6 0 4
8 0 4
10 0 4
0 0 4
1 0 4
1 8 4
6 8 4
1 10 4
6 10 4
0 8 4
0 10 4
8 8 4
10 8 4
8 10 4
10 10 4

CELLS 296 1480
4 88 84 73 5 
4 55 52 40 14 
4 32 35 137 133 
4 13 72 84 88 
4 107 106 108 109 
4 72 67 38 17 
4 13 37 67 72 
4 17 38 52 55 
4 89 85 71 36 
4 109 107 52 40 
4 109 108 44 40 
4 108 106 60 44 
4 103 102 106 107 
4 37 67 85 89 
4 103 107 52 38 
4 88 89 36 5 
4 13 37 89 88 
4 84 85 86 87 
4 68 70 27 19 
4 87 84 73 18 
4 107 106 60 52 
4 17 72 84 87 
4 1 24 70 68 
4 87 86 39 18 
4 102 106 60 43 
4 17 38 86 87 
4 86 85 71 39 
4 38 67 85 86 
4 104 105 101 100 
4 85 84 73 71 
4 69 64 26 16 
4 104 100 67 37 
4 54 53 41 6 
4 18 39 53 54 
4 12 25 64 69 
4 105 101 66 42 
4 8 12 25 30 
4 104 105 42 37 
4 16 20 31 26 
4 67 72 84 85 
4 48 51 28 15 
4 80 81 82 83 
4 11 15 28 32 
4 16 26 51 48 
4 100 101 102 103 
4 103 100 67 38 
4 137 136 111 112 
4 0 8 30 33 
4 20 22 34 31 
4 49 50 29 2 
4 83 80 54 6 
4 19 27 50 49 
4 14 55 80 83 
4 3 11 32 35 
4 103 102 43 38 
4 35 59 136 137 
4 127 135 136 131 
4 37 42 9 13 
4 131 136 111 106 
4 38 43 21 17 
4 83 82 41 6 
4 14 40 82 83 
4 82 81 53 41 
4 57 59 136 131 
4 40 44 10 14 
4 67 66 43 38 
4 37 42 66 67 
4 135 136 111 110 
4 34 59 136 135 
4 42 45 4 9 
4 127 135 110 102 
4 43 46 23 21 
4 40 52 81 82 
4 81 80 54 53 
4 52 55 80 81 
4 31 34 135 127 
4 44 47 7 10 
4 132 131 133 134 
4 64 65 31 26 
4 25 30 65 64 
4 102 101 66 43 
4 134 132 107 109 
4 28 51 132 134 
4 134 133 108 109 
4 28 32 133 134 
4 16 20 56 48 
4 48 56 11 15 
4 20 31 57 56 
4 56 57 32 11 
4 26 31 57 51 
4 51 57 32 28 
4 48 56 57 51 
4 20 22 58 56 
4 56 58 3 11 
4 22 34 59 58 
4 58 59 35 3 
4 31 34 59 57 
4 57 59 35 32 
4 56 58 59 57 
4 133 131 106 108 
4 32 57 131 133 
4 38 43 60 52 
4 52 60 44 40 
4 128 127 131 132 
4 21 43 60 61 
4 61 60 44 10 
4 17 21 61 55 
4 55 61 10 14 
4 52 60 61 55 
4 128 132 107 103 
4 26 51 132 128 
4 43 46 62 60 
4 60 62 47 44 
4 132 131 106 107 
4 23 46 62 63 
4 63 62 47 7 
4 21 23 63 61 
4 61 63 7 10 
4 60 62 63 61 
4 5 36 71 73 
4 73 71 39 18 
4 100 101 66 67 
4 51 57 131 132 
4 127 131 106 102 
4 8 12 69 74 
4 74 69 16 20 
4 8 30 65 74 
4 74 65 31 20 
4 74 69 64 65 
4 0 8 74 75 
4 75 74 20 22 
4 30 33 76 65 
4 65 76 34 31 
4 0 33 76 75 
4 75 76 34 22 
4 75 74 65 76 
4 9 42 66 77 
4 77 66 43 21 
4 9 13 72 77 
4 77 72 17 21 
4 67 66 77 72 
4 31 57 131 127 
4 129 130 126 125 
4 42 45 78 66 
4 66 78 46 43 
4 129 125 100 104 
4 4 45 78 79 
4 79 78 46 23 
4 4 9 77 79 
4 79 77 21 23 
4 66 78 79 77 
4 88 89 85 84 
4 38 52 81 86 
4 86 81 53 39 
4 17 55 80 87 
4 87 80 54 18 
4 87 86 81 80 
4 64 69 90 91 
4 91 90 68 70 
4 26 64 91 92 
4 92 91 70 27 
4 16 26 92 93 
4 93 92 27 19 
4 16 69 90 93 
4 93 90 68 19 
4 90 91 92 93 
4 12 25 95 94 
4 94 95 24 1 
4 25 64 91 95 
4 95 91 70 24 
4 12 69 90 94 
4 94 90 68 1 
4 94 95 91 90 
4 48 51 97 96 
4 96 97 50 49 
4 28 51 97 98 
4 98 97 50 29 
4 15 28 98 99 
4 99 98 29 2 
4 15 48 96 99 
4 99 96 49 2 
4 96 97 98 99 
4 26 51 97 92 
4 92 97 50 27 
4 16 48 96 93 
4 93 96 49 19 
4 93 92 97 96 
4 25 64 125 129 
4 130 126 101 105 
4 30 65 126 130 
4 129 130 105 104 
4 25 30 130 129 
4 125 126 127 128 
4 128 125 100 103 
4 26 64 125 128 
4 128 127 102 103 
4 26 31 127 128 
4 127 126 101 102 
4 31 65 126 127 
4 125 126 101 100 
4 64 65 126 125 
4 102 110 46 43 
4 110 111 62 46 
4 106 111 62 60 
4 102 110 111 106 
4 112 111 62 47 
4 108 112 47 44 
4 106 111 112 108 
4 105 113 45 42 
4 113 114 78 45 
4 101 114 78 66 
4 105 113 114 101 
4 110 114 78 46 
4 101 114 110 102 
4 100 115 85 67 
4 115 116 86 85 
4 103 116 86 38 
4 103 100 115 116 
4 117 115 85 71 
4 118 117 71 39 
4 118 116 86 39 
4 116 115 117 118 
4 115 119 89 85 
4 104 119 89 37 
4 104 100 115 119 
4 120 117 71 36 
4 120 119 89 36 
4 119 115 117 120 
4 107 121 81 52 
4 121 122 82 81 
4 109 122 82 40 
4 109 107 121 122 
4 123 121 81 53 
4 124 123 53 41 
4 124 122 82 41 
4 122 121 123 124 
4 116 121 81 86 
4 103 107 121 116 
4 118 123 53 39 
4 116 121 123 118 
4 133 137 112 108 
4 131 136 137 133 
4 30 33 138 130 
4 130 138 113 105 
4 33 76 139 138 
4 138 139 114 113 
4 65 76 139 126 
4 126 139 114 101 
4 130 138 139 126 
4 34 76 139 135 
4 135 139 114 110 
4 126 139 135 127 
4 64 91 140 125 
4 125 140 115 100 
4 91 92 141 140 
4 140 141 116 115 
4 26 92 141 128 
4 128 141 116 103 
4 128 125 140 141 
4 70 91 140 142 
4 142 140 115 117 
4 27 70 142 143 
4 143 142 117 118 
4 27 92 141 143 
4 143 141 116 118 
4 141 140 142 143 
4 91 95 144 140 
4 140 144 119 115 
4 25 95 144 129 
4 129 144 119 104 
4 129 125 140 144 
4 24 70 142 145 
4 145 142 117 120 
4 24 95 144 145 
4 145 144 119 120 
4 144 140 142 145 
4 51 97 146 132 
4 132 146 121 107 
4 97 98 147 146 
4 146 147 122 121 
4 28 98 147 134 
4 134 147 122 109 
4 134 132 146 147 
4 50 97 146 148 
4 148 146 121 123 
4 29 50 148 149 
4 149 148 123 124 
4 29 98 147 149 
4 149 147 122 124 
4 147 146 148 149 
4 92 97 146 141 
4 141 146 121 116 
4 128 132 146 141 
4 27 50 148 143 
4 143 148 123 118 
4 141 146 148 143 

CELL_TYPES 296
9 
9 
9 
9 
9 
9 
9 
9 
9 
9 
9 
9 
9 
9 
9 
9 
9 
9 
9 
9 
9 
9 
9 
9 
9 
9 
9 
9 
9 
9 
9 
9 
9 
9 
9 
9 
9 
9 
9 
9 
9 
9 
9 
9 
9 
9 
9 
9 
9 
9 
9 
9 
9 
9 
9 
9 
9 
9 
9 
9 
9 
9 
9 
9 
9 
9 
9 
9 
9 
9 
9 
9 
9 
9 
9 
9 
9 
9 
9 
9 
9 
9 
9 
9 
9 
9 
9 
9 
9 
9 
9 
9 
9 
9 
9 
9 
9 
9 
9 
9 
9 
9 
9 
9 
9 
9 
9 
9 
9 
9 
9 
9 
9 
9 
9 
9 
9 
9 
9 
9 
9 
9 
9 
9 
9 
9 
9 
9 
9 
9 
9 
9 
9 
9 
9 
9 
9 
9 
9 
9 
9 
9 
9 
9 
9 
9 
9 
9 
9 
9 
9 
9 
9 
9 
9 
9 
9 
9 
9 
9 
9 
9 
9 
9 
9 
9 
9 
9 
9 
9 
9 
9 
9 
9 
9 
9 
9 
9 
9 
9 
9 
9 
9 
9 
9 
9 
9 
9 
9 
9 
9 
9 
9 
9 
9 
9 
9 
9 
9 
9 
9 
9 
9 
9 
9 
9 
9 
9 
9 
9 
9 
9 
9 
9 
9 
9 
9 
9 
9 
9 
9 
9 
9 
9 
9 
9 
9 
9 
9 
9 
9 
9 
9 
9 
9 
9 
9 
9 
9 
9 
9 
9 
9 
9 
9 
9 
9 
9 
9 
9 
9 
9 
9 
9 
9 
9 
9 
9 
9 
9 
9 
9 
9 
9 
9 
9 
9 
9 
9 
9 
9 
9 
9 
9 
9 
9 
9 
9 
9 
9 
9 
9 
9 
9 
9 
9 
9 
9 
9 
9 
9 
9 
9 
9 
9 
9 
POINT_DATA 150
SCALARS GMDS_ID int 1
LOOKUP_TABLE default
0 1 2 3 4 5 6 7 8 9 10 11 12 13 14 15 16 17 18 19 20 21 22 23 24 25 26 27 28 29 30 31 32 33 34 35 36 37 38 39 40 41 42 43 44 45 46 47 48 49 50 51 52 53 54 55 56 57 58 59 60 61 62 63 64 65 66 67 68 69 70 71 72 73 74 75 76 77 78 79 80 81 82 83 84 85 86 87 88 89 90 91 92 93 94 95 96 97 98 99 100 101 102 103 104 105 106 107 108 109 110 111 112 113 114 115 116 117 118 119 120 121 122 123 124 125 126 127 128 129 130 131 132 133 134 135 136 137 138 139 140 141 142 143 144 145 146 147 148 149 
SCALARS geom_link_dim int 1
LOOKUP_TABLE default
1 1 1 1 1 1 1 1 2 2 2 2 2 2 2 2 3 3 2 2 3 3 2 2 2 3 0 3 3 2 3 0 3 2 3 2 2 3 1 3 3 2 3 0 3 2 3 2 3 2 3 0 1 3 2 3 3 0 2 3 0 3 3 2 0 0 0 0 2 3 3 3 3 2 3 2 3 3 3 2 3 1 3 2 3 0 1 3 2 3 3 0 0 3 2 3 3 0 3 2 0 0 0 1 3 3 0 1 3 3 3 3 2 2 3 0 1 3 3 3 2 1 3 3 2 0 0 0 0 3 3 0 0 3 3 3 3 2 2 3 0 0 3 3 3 2 0 3 3 2 
SCALARS geom_link_id int 1
LOOKUP_TABLE default
10 12 16 13 9 11 15 14 19 29 26 31 19 29 26 31 11 18 25 30 11 18 20 28 32 10 0 17 13 27 10 0 13 21 12 33 32 10 1 17 13 27 10 0 13 21 12 33 11 30 17 0 5 17 25 18 11 0 20 12 0 18 12 28 0 0 0 0 30 11 17 17 18 25 11 20 12 18 12 28 18 7 13 26 18 0 3 18 29 10 11 0 0 11 19 10 11 0 13 31 0 0 0 2 10 10 0 6 13 13 12 12 33 21 12 0 4 17 17 10 32 8 13 17 27 -1 -1 -1 -1 10 10 -1 -1 13 13 12 12 33 21 12 -1 -1 17 17 10 32 -1 13 17 27 


CELL_DATA 296
SCALARS GMDS_ID int 1
LOOKUP_TABLE default
1 2 3 4 5 6 7 8 9 10 12 14 16 17 18 20 21 22 23 24 25 27 28 29 30 31 32 34 35 36 37 38 39 41 42 43 45 46 47 49 50 51 52 53 54 55 56 57 59 60 61 62 63 64 65 66 68 69 70 71 72 73 74 75 76 77 78 79 80 81 82 83 84 85 86 87 88 89 90 91 92 93 94 95 96 98 99 100 101 102 103 104 105 106 107 108 109 110 111 112 113 114 115 116 117 118 119 120 121 122 123 124 125 126 127 128 129 130 131 132 133 134 135 136 138 139 140 141 142 143 144 145 146 147 148 149 150 151 152 153 154 155 156 157 158 159 160 161 162 163 164 165 166 167 168 169 170 171 172 173 174 175 176 177 178 179 180 181 182 183 184 185 186 187 188 189 190 191 192 193 194 195 196 197 198 199 200 201 202 203 204 205 206 207 208 209 210 211 212 213 214 215 217 219 220 222 224 225 227 229 231 232 234 235 237 239 241 242 244 246 248 249 251 253 254 256 258 259 261 263 265 266 268 270 272 273 275 276 278 279 280 281 282 283 284 285 286 287 288 289 290 291 292 293 294 295 296 297 298 299 300 301 302 303 304 305 306 307 308 309 310 311 312 313 314 315 316 317 318 319 320 321 322 323 324 325 326 327 328 329 330 331 332 333 334 335 

SCALARS geom_link_dim int 1
LOOKUP_TABLE default
0 0 0 0 0 0 0 0 0 0 0 0 0 0 0 0 0 0 0 0 0 0 0 0 0 0 0 0 0 0 0 0 0 0 0 0 0 0 0 0 0 0 0 0 0 0 0 0 0 0 0 0 0 0 0 0 0 0 0 0 0 0 0 0 0 0 0 0 0 0 0 0 0 0 0 0 0 0 0 0 0 0 0 0 0 0 0 0 0 0 0 0 0 0 0 0 0 0 0 0 0 0 0 0 0 0 0 0 0 0 0 0 0 0 0 0 0 0 0 0 0 0 0 0 0 0 0 0 0 0 0 0 0 0 0 0 0 0 0 0 0 0 0 0 0 0 0 0 0 0 0 0 0 0 0 0 0 0 0 0 0 0 0 0 0 0 0 0 0 0 0 0 0 0 0 0 0 0 0 0 0 0 0 0 0 0 0 0 0 0 0 0 0 0 0 0 0 0 0 0 0 0 0 0 0 0 0 0 0 0 0 0 0 0 0 0 0 0 0 0 0 0 0 0 0 0 0 0 0 0 0 0 0 0 0 0 0 0 0 0 0 0 0 0 0 0 0 0 0 0 0 0 0 0 0 0 0 0 0 0 0 0 0 0 0 0 0 0 0 0 0 0 0 0 0 0 0 0 0 0 0 0 0 0 0 0 0 0 0 0 0 0 0 0 0 0 

SCALARS geom_link_id int 1
LOOKUP_TABLE default
0 0 -1 0 0 0 0 0 0 0 0 0 0 0 0 0 0 0 0 0 0 0 0 0 0 0 0 0 0 0 0 0 0 0 0 0 0 0 0 0 0 0 0 0 0 0 -1 0 0 0 0 0 0 0 0 -1 -1 0 -1 0 0 0 0 -1 0 0 0 -1 -1 0 -1 0 0 0 0 -1 0 -1 0 0 0 -1 -1 -1 -1 0 0 0 0 0 0 0 0 0 0 0 0 0 0 -1 -1 0 0 -1 0 0 0 0 0 -1 -1 0 0 -1 0 0 0 0 0 0 0 0 -1 -1 0 0 0 0 0 0 0 0 0 0 0 0 0 0 0 0 0 -1 -1 0 0 -1 0 0 0 0 0 0 0 0 0 0 0 0 0 0 0 0 0 0 0 0 0 0 0 0 0 0 0 0 0 0 0 0 0 0 0 0 0 0 0 0 0 -1 -1 -1 -1 -1 -1 -1 -1 -1 -1 -1 -1 -1 -1 0 0 0 0 0 0 0 0 0 0 0 0 0 0 0 0 0 0 0 0 0 0 0 0 0 0 0 0 0 0 0 0 0 0 0 0 0 0 0 -1 -1 -1 -1 -1 -1 -1 -1 -1 -1 -1 -1 -1 -1 -1 -1 -1 -1 -1 -1 -1 -1 -1 -1 -1 -1 -1 -1 -1 -1 -1 -1 -1 -1 -1 -1 -1 -1 -1 -1 -1 -1 -1 -1 -1 -1 -1 -1 -1 -1 -1 -1 -1 -1 -1 -1 

