# vtk DataFile Version 3.0
Generated by GMDS VTK Writer

ASCII
DATASET UNSTRUCTURED_GRID
POINTS 48 float
0 0 0
0 10 0
10 10 0
10 0 0
0 0 10
0 10 10
10 10 10
10 0 10
0 1 0
0 1 10
10 1 10
10 1 0
0 6 0
0 6 10
10 6 10
10 6 0
6 6 0
6 6 10
6 10 10
6 10 0
6 1 0
6 1 10
6 0 0
6 0 10
0 10 1
0 6 1
6 6 1
6 10 1
10 6 1
10 10 1
0 1 1
6 1 1
10 1 1
0 0 1
6 0 1
10 0 1
0 10 8
0 6 8
6 6 8
6 10 8
10 6 8
10 10 8
0 1 8
6 1 8
10 1 8
0 0 8
6 0 8
10 0 8

CELLS 75 375
4 15 16 26 28 
4 24 25 26 27 
4 25 30 42 37 
4 1 19 27 24 
4 39 38 40 41 
4 39 41 6 18 
4 18 17 14 6 
4 5 13 17 18 
4 27 29 41 39 
4 40 41 6 14 
4 16 19 27 26 
4 28 29 41 40 
4 38 40 14 17 
4 26 28 40 38 
4 12 16 26 25 
4 1 12 25 24 
4 36 37 38 39 
4 36 39 18 5 
4 1 12 16 19 
4 19 16 15 2 
4 24 27 39 36 
4 38 39 18 17 
4 26 27 39 38 
4 9 13 17 21 
4 21 17 14 10 
4 8 12 16 20 
4 20 16 15 11 
4 37 38 17 13 
4 25 26 38 37 
4 36 37 13 5 
4 4 9 21 23 
4 23 21 10 7 
4 0 8 20 22 
4 22 20 11 3 
4 24 25 37 36 
4 2 15 28 29 
4 2 19 27 29 
4 27 26 28 29 
4 8 12 25 30 
4 16 20 31 26 
4 8 20 31 30 
4 30 25 26 31 
4 11 15 28 32 
4 11 20 31 32 
4 31 26 28 32 
4 0 8 30 33 
4 20 22 34 31 
4 0 22 34 33 
4 33 30 31 34 
4 3 11 32 35 
4 3 22 34 35 
4 34 31 32 35 
4 37 42 9 13 
4 26 31 43 38 
4 38 43 21 17 
4 30 31 43 42 
4 42 43 21 9 
4 42 37 38 43 
4 28 32 44 40 
4 40 44 10 14 
4 31 32 44 43 
4 43 44 10 21 
4 43 38 40 44 
4 30 33 45 42 
4 42 45 4 9 
4 31 34 46 43 
4 43 46 23 21 
4 33 34 46 45 
4 45 46 23 4 
4 45 42 43 46 
4 32 35 47 44 
4 44 47 7 10 
4 34 35 47 46 
4 46 47 7 23 
4 46 43 44 47 

CELL_TYPES 75
9 
9 
9 
9 
9 
9 
9 
9 
9 
9 
9 
9 
9 
9 
9 
9 
9 
9 
9 
9 
9 
9 
9 
9 
9 
9 
9 
9 
9 
9 
9 
9 
9 
9 
9 
9 
9 
9 
9 
9 
9 
9 
9 
9 
9 
9 
9 
9 
9 
9 
9 
9 
9 
9 
9 
9 
9 
9 
9 
9 
9 
9 
9 
9 
9 
9 
9 
9 
9 
9 
9 
9 
9 
9 
9 
POINT_DATA 48
SCALARS GMDS_ID int 1
LOOKUP_TABLE default
0 1 2 3 4 5 6 7 8 9 10 11 12 13 14 15 16 17 18 19 20 21 22 23 24 25 26 27 28 29 30 31 32 33 34 35 36 37 38 39 40 41 42 43 44 45 46 47 
SCALARS geom_link_dim int 1
LOOKUP_TABLE default
1 1 1 1 1 1 1 1 2 2 2 2 2 2 2 2 3 3 2 2 3 3 2 2 2 3 0 3 3 2 3 0 3 2 3 2 2 3 0 3 3 2 3 0 3 2 3 2 
SCALARS geom_link_id int 1
LOOKUP_TABLE default
10 12 16 13 9 11 15 14 19 29 26 31 19 29 26 31 11 18 25 30 11 18 20 28 32 10 0 17 13 27 10 0 13 21 12 33 32 10 -1 17 13 27 10 -1 13 21 12 33 


CELL_DATA 75
SCALARS GMDS_ID int 1
LOOKUP_TABLE default
0 1 3 4 5 6 7 9 10 11 12 13 15 16 17 19 20 21 22 23 24 25 26 27 28 29 30 31 32 33 34 35 36 37 38 40 42 44 45 47 49 51 52 54 56 57 59 61 63 64 66 68 69 70 71 72 73 74 75 76 77 78 79 80 81 82 83 84 85 86 87 88 89 90 91 

SCALARS geom_link_dim int 1
LOOKUP_TABLE default
0 0 0 0 0 0 0 0 0 0 0 0 0 0 0 0 0 0 0 0 0 0 0 0 0 0 0 0 0 0 0 0 0 0 0 0 0 0 0 0 0 0 0 0 0 0 0 0 0 0 0 0 0 0 0 0 0 0 0 0 0 0 0 0 0 0 0 0 0 0 0 0 0 0 0 

SCALARS geom_link_id int 1
LOOKUP_TABLE default
0 0 -1 0 -1 -1 0 0 -1 -1 0 -1 -1 -1 0 0 -1 -1 0 0 -1 -1 -1 0 0 0 0 -1 -1 -1 0 0 0 0 -1 0 0 0 0 0 0 0 0 0 0 0 0 0 0 0 0 0 -1 -1 -1 -1 -1 -1 -1 -1 -1 -1 -1 -1 -1 -1 -1 -1 -1 -1 -1 -1 -1 -1 -1 

