# vtk DataFile Version 3.0
Generated by GMDS VTK Writer

ASCII
DATASET UNSTRUCTURED_GRID
POINTS 48 float
0 0 0
0 10 0
10 10 0
10 0 0
0 0 10
0 10 10
10 10 10
10 0 10
0 4 0
0 4 10
10 4 10
10 4 0
1 0 0
1 0 10
1 4 10
1 4 0
1 10 10
1 10 0
10 0 1
10 4 1
1 4 1
1 0 1
0 4 1
0 0 1
10 10 1
1 10 1
0 10 1
10 1 0
1 1 0
1 1 1
10 1 1
1 1 10
10 1 10
0 1 0
0 1 1
0 1 10
10 0 4
1 0 4
1 1 4
10 1 4
10 10 4
10 4 4
1 4 4
1 10 4
0 4 4
0 10 4
0 0 4
0 1 4

CELLS 75 375
4 10 14 42 41 
4 40 41 19 24 
4 3 12 21 18 
4 7 13 31 32 
4 6 10 41 40 
4 27 28 29 30 
4 36 37 38 39 
4 27 30 19 11 
4 3 18 30 27 
4 11 15 20 19 
4 36 39 30 18 
4 7 32 39 36 
4 30 29 20 19 
4 18 21 29 30 
4 38 39 30 29 
4 31 32 39 38 
4 28 29 20 15 
4 6 10 14 16 
4 16 14 9 5 
4 12 21 29 28 
4 27 28 15 11 
4 2 11 15 17 
4 17 15 8 1 
4 3 12 28 27 
4 37 38 29 21 
4 8 15 20 22 
4 13 31 38 37 
4 36 37 21 18 
4 0 12 21 23 
4 7 13 37 36 
4 2 11 19 24 
4 15 17 25 20 
4 2 17 25 24 
4 24 19 20 25 
4 1 8 22 26 
4 1 17 25 26 
4 25 20 22 26 
4 32 31 14 10 
4 0 12 28 33 
4 33 28 15 8 
4 21 23 34 29 
4 29 34 22 20 
4 0 23 34 33 
4 33 34 22 8 
4 33 28 29 34 
4 4 13 31 35 
4 35 31 14 9 
4 41 42 20 19 
4 14 16 43 42 
4 42 43 25 20 
4 6 16 43 40 
4 40 43 25 24 
4 40 41 42 43 
4 9 14 42 44 
4 44 42 20 22 
4 5 9 44 45 
4 45 44 22 26 
4 5 16 43 45 
4 45 43 25 26 
4 43 42 44 45 
4 14 31 38 42 
4 42 38 29 20 
4 10 32 39 41 
4 41 39 30 19 
4 39 38 42 41 
4 4 13 37 46 
4 46 37 21 23 
4 31 35 47 38 
4 38 47 34 29 
4 4 35 47 46 
4 46 47 34 23 
4 46 37 38 47 
4 9 35 47 44 
4 44 47 34 22 
4 47 38 42 44 

CELL_TYPES 75
9 
9 
9 
9 
9 
9 
9 
9 
9 
9 
9 
9 
9 
9 
9 
9 
9 
9 
9 
9 
9 
9 
9 
9 
9 
9 
9 
9 
9 
9 
9 
9 
9 
9 
9 
9 
9 
9 
9 
9 
9 
9 
9 
9 
9 
9 
9 
9 
9 
9 
9 
9 
9 
9 
9 
9 
9 
9 
9 
9 
9 
9 
9 
9 
9 
9 
9 
9 
9 
9 
9 
9 
9 
9 
9 
POINT_DATA 48
SCALARS GMDS_ID int 1
LOOKUP_TABLE default
0 1 2 3 4 5 6 7 8 9 10 11 12 13 14 15 16 17 18 19 20 21 22 23 24 25 26 27 28 29 30 31 32 33 34 35 36 37 38 39 40 41 42 43 44 45 46 47 
SCALARS geom_link_dim_0 int 1
LOOKUP_TABLE default
0 0 0 0 0 0 0 0 0 0 0 0 0 0 0 0 0 0 0 0 0 0 0 0 0 0 0 0 0 0 0 0 0 0 0 0 0 0 0 0 0 0 0 0 0 0 0 0 
SCALARS geom_link_id_0 int 1
LOOKUP_TABLE default
0 0 0 0 0 0 0 0 0 0 0 0 0 0 0 0 0 0 0 0 0 0 0 0 0 0 0 0 0 0 0 0 0 0 0 0 0 0 0 0 0 0 0 0 0 0 0 0 


CELL_DATA 75
SCALARS GMDS_ID int 1
LOOKUP_TABLE default
0 1 2 3 4 7 8 10 11 12 13 14 15 16 17 18 19 20 21 22 23 24 25 26 28 29 31 32 33 35 36 38 40 42 43 45 47 48 52 53 54 55 56 57 58 59 60 64 65 66 67 68 69 70 71 72 73 74 75 76 77 78 79 80 81 82 83 84 85 86 87 88 89 90 91 

SCALARS geom_link_dim_0 int 1
LOOKUP_TABLE default
0 0 0 0 0 0 0 0 0 0 0 0 0 0 0 0 0 0 0 0 0 0 0 0 0 0 0 0 0 0 0 0 0 0 0 0 0 0 0 0 0 0 0 0 0 0 0 0 0 0 0 0 0 0 0 0 0 0 0 0 0 0 0 0 0 0 0 0 0 0 0 0 0 0 0 

SCALARS geom_link_id_0 int 1
LOOKUP_TABLE default
0 0 0 0 0 0 0 0 0 0 0 0 0 0 0 0 0 0 0 0 0 0 0 0 0 0 0 0 0 0 0 0 0 0 0 0 0 0 0 0 0 0 0 0 0 0 0 0 0 0 0 0 0 0 0 0 0 0 0 0 0 0 0 0 0 0 0 0 0 0 0 0 0 0 0 

