# vtk DataFile Version 3.0
Generated by GMDS VTK Writer

ASCII
DATASET UNSTRUCTURED_GRID
POINTS 150 float
0 0 0
0 10 0
10 10 0
10 0 0
0 0 10
0 10 10
10 10 10
10 0 10
6 0 0
6 10 0
6 10 10
6 0 10
4 0 0
4 10 0
4 10 10
4 0 10
4 0 8
4 10 8
6 10 8
6 0 8
0 0 8
0 10 8
10 10 8
10 0 8
6 1 0
4 1 0
4 1 8
6 1 8
4 1 10
6 1 10
0 1 0
0 1 8
0 1 10
10 1 0
10 1 8
10 1 10
6 6 0
4 6 0
4 6 8
6 6 8
4 6 10
6 6 10
0 6 0
0 6 8
0 6 10
10 6 0
10 6 8
10 6 10
6 8 8
4 8 8
4 8 10
6 8 10
6 8 0
4 8 0
0 8 0
0 8 8
0 8 10
10 8 0
10 8 8
10 8 10
8 0 0
8 0 8
8 1 8
8 1 0
8 1 10
8 6 10
8 6 8
8 8 0
8 8 8
8 10 8
8 10 0
8 6 0
8 0 10
8 8 10
8 10 10
6 4 0
4 4 0
4 4 8
6 4 8
8 4 8
8 4 10
10 4 10
10 4 8
4 4 10
6 4 10
0 4 0
0 4 8
0 4 10
8 4 0
10 4 0
4 6 6
0 6 6
0 8 6
4 8 6
6 0 6
4 0 6
4 1 6
6 1 6
6 8 6
4 10 6
6 10 6
0 0 6
0 1 6
6 6 6
8 0 6
8 1 6
10 1 6
10 0 6
0 10 6
6 4 6
4 4 6
8 8 6
8 10 6
10 8 6
10 10 6
8 6 6
10 6 6
0 4 6
8 4 6
10 4 6
4 6 4
0 6 4
0 8 4
4 8 4
6 0 4
4 0 4
4 1 4
6 1 4
6 8 4
4 10 4
6 10 4
0 0 4
0 1 4
6 6 4
8 0 4
8 1 4
10 1 4
10 0 4
0 10 4
6 4 4
4 4 4
8 8 4
8 10 4
10 8 4
10 10 4
8 6 4
10 6 4
0 4 4
8 4 4
10 4 4

CELLS 296 1480
4 15 16 26 28 
4 24 63 135 127 
4 37 42 54 53 
4 134 135 136 137 
4 99 93 49 17 
4 39 38 40 41 
4 18 17 14 10 
4 137 134 104 107 
4 3 60 134 137 
4 98 93 49 48 
4 94 95 96 97 
4 16 19 27 26 
4 137 136 106 107 
4 66 65 47 46 
4 94 97 27 19 
4 3 33 136 137 
4 136 135 105 106 
4 8 12 25 24 
4 33 63 135 136 
4 39 41 65 66 
4 134 135 105 104 
4 19 16 15 11 
4 97 96 26 27 
4 60 63 135 134 
4 21 17 14 5 
4 133 120 123 128 
4 20 16 15 4 
4 95 96 26 16 
4 83 84 41 40 
4 28 29 84 83 
4 62 64 35 34 
4 77 83 40 38 
4 26 28 83 77 
4 94 95 16 19 
4 133 128 98 103 
4 11 15 28 29 
4 36 52 128 133 
4 11 19 27 29 
4 52 53 13 9 
4 27 26 28 29 
4 0 12 25 30 
4 36 37 53 52 
4 16 20 31 26 
4 48 49 50 51 
4 133 120 90 103 
4 48 51 10 18 
4 36 37 120 133 
4 4 15 28 32 
4 39 41 51 48 
4 4 20 31 32 
4 50 51 10 14 
4 31 26 28 32 
4 79 80 81 82 
4 40 41 51 50 
4 82 79 66 46 
4 49 50 14 17 
4 131 125 126 132 
4 38 40 50 49 
4 34 62 79 82 
4 82 81 47 46 
4 49 48 18 17 
4 7 23 34 35 
4 38 39 48 49 
4 34 35 81 82 
4 27 29 64 62 
4 131 132 102 101 
4 90 91 92 93 
4 60 63 33 3 
4 0 30 132 131 
4 90 93 49 38 
4 8 24 63 60 
4 126 132 102 96 
4 43 38 40 44 
4 81 80 65 47 
4 25 30 132 126 
4 35 64 80 81 
4 61 62 34 23 
4 93 92 55 49 
4 19 27 62 61 
4 79 80 65 66 
4 62 64 80 79 
4 131 125 95 101 
4 0 12 125 131 
4 128 123 129 130 
4 53 54 1 13 
4 38 43 55 49 
4 49 55 21 17 
4 130 128 98 100 
4 9 52 128 130 
4 130 129 99 100 
4 40 44 56 50 
4 50 56 5 14 
4 43 44 56 55 
4 55 56 5 21 
4 55 49 50 56 
4 9 13 129 130 
4 129 123 93 99 
4 77 78 39 38 
4 26 27 78 77 
4 13 53 123 129 
4 128 123 93 98 
4 52 53 123 128 
4 124 125 126 127 
4 75 76 37 36 
4 46 47 59 58 
4 58 59 6 22 
4 24 25 76 75 
4 91 92 55 43 
4 124 127 97 94 
4 8 24 127 124 
4 18 48 68 69 
4 69 68 58 22 
4 127 126 96 97 
4 24 25 126 127 
4 9 52 67 70 
4 70 67 57 2 
4 125 126 96 95 
4 12 25 126 125 
4 124 125 95 94 
4 39 48 68 66 
4 66 68 58 46 
4 36 52 67 71 
4 71 67 57 45 
4 8 12 125 124 
4 90 91 43 38 
4 11 19 61 72 
4 72 61 23 7 
4 11 29 64 72 
4 72 64 35 7 
4 72 61 62 64 
4 48 51 73 68 
4 68 73 59 58 
4 10 51 73 74 
4 74 73 59 6 
4 10 18 69 74 
4 74 69 22 6 
4 68 73 74 69 
4 41 51 73 65 
4 65 73 59 47 
4 66 65 73 68 
4 27 29 84 78 
4 78 84 41 39 
4 78 77 83 84 
4 25 30 85 76 
4 76 85 42 37 
4 26 31 86 77 
4 77 86 43 38 
4 120 121 122 123 
4 120 123 93 90 
4 37 53 123 120 
4 28 32 87 83 
4 83 87 44 40 
4 31 32 87 86 
4 86 87 44 43 
4 86 77 83 87 
4 29 64 80 84 
4 84 80 65 41 
4 27 62 79 78 
4 78 79 66 39 
4 78 84 80 79 
4 123 122 92 93 
4 53 54 122 123 
4 121 122 92 91 
4 42 54 122 121 
4 33 63 88 89 
4 89 88 71 45 
4 120 121 91 90 
4 24 63 88 75 
4 75 88 71 36 
4 37 42 121 120 
4 100 99 17 18 
4 100 98 48 18 
4 98 93 99 100 
4 101 95 16 20 
4 96 102 31 26 
4 101 102 31 20 
4 101 95 96 102 
4 103 90 38 39 
4 103 98 48 39 
4 103 90 93 98 
4 104 105 62 61 
4 106 105 62 34 
4 107 106 34 23 
4 107 104 61 23 
4 104 105 106 107 
4 97 105 62 27 
4 94 104 61 19 
4 94 97 105 104 
4 108 92 55 21 
4 108 99 17 21 
4 93 92 108 99 
4 109 110 77 78 
4 90 110 77 38 
4 103 109 78 39 
4 109 110 90 103 
4 96 110 77 26 
4 97 109 78 27 
4 97 96 110 109 
4 98 111 68 48 
4 111 112 69 68 
4 100 112 69 18 
4 100 98 111 112 
4 113 111 68 58 
4 114 113 58 22 
4 114 112 69 22 
4 112 111 113 114 
4 111 115 66 68 
4 103 115 66 39 
4 103 98 111 115 
4 116 113 58 46 
4 116 115 66 46 
4 115 111 113 116 
4 102 117 86 31 
4 110 117 86 77 
4 96 102 117 110 
4 91 117 86 43 
4 110 117 91 90 
4 105 118 79 62 
4 118 119 82 79 
4 106 119 82 34 
4 106 105 118 119 
4 115 118 79 66 
4 116 119 82 46 
4 119 118 115 116 
4 109 118 79 78 
4 97 105 118 109 
4 109 118 115 103 
4 127 135 105 97 
4 8 60 134 124 
4 124 134 104 94 
4 124 127 135 134 
4 1 54 122 138 
4 138 122 92 108 
4 1 13 129 138 
4 138 129 99 108 
4 123 122 138 129 
4 75 76 140 139 
4 139 140 110 109 
4 37 76 140 120 
4 120 140 110 90 
4 36 75 139 133 
4 133 139 109 103 
4 139 140 120 133 
4 25 76 140 126 
4 126 140 110 96 
4 24 75 139 127 
4 127 139 109 97 
4 127 126 140 139 
4 52 67 141 128 
4 128 141 111 98 
4 67 70 142 141 
4 141 142 112 111 
4 9 70 142 130 
4 130 142 112 100 
4 130 128 141 142 
4 57 67 141 143 
4 143 141 111 113 
4 2 57 143 144 
4 144 143 113 114 
4 2 70 142 144 
4 144 142 112 114 
4 142 141 143 144 
4 67 71 145 141 
4 141 145 115 111 
4 36 71 145 133 
4 133 145 115 103 
4 133 128 141 145 
4 45 57 143 146 
4 146 143 113 116 
4 45 71 145 146 
4 146 145 115 116 
4 145 141 143 146 
4 30 85 147 132 
4 132 147 117 102 
4 76 85 147 140 
4 140 147 117 110 
4 126 132 147 140 
4 42 85 147 121 
4 121 147 117 91 
4 140 147 121 120 
4 63 88 148 135 
4 135 148 118 105 
4 88 89 149 148 
4 148 149 119 118 
4 33 89 149 136 
4 136 149 119 106 
4 136 135 148 149 
4 71 88 148 145 
4 145 148 118 115 
4 45 89 149 146 
4 146 149 119 116 
4 149 148 145 146 
4 75 88 148 139 
4 139 148 118 109 
4 127 135 148 139 
4 139 148 145 133 

CELL_TYPES 296
9 
9 
9 
9 
9 
9 
9 
9 
9 
9 
9 
9 
9 
9 
9 
9 
9 
9 
9 
9 
9 
9 
9 
9 
9 
9 
9 
9 
9 
9 
9 
9 
9 
9 
9 
9 
9 
9 
9 
9 
9 
9 
9 
9 
9 
9 
9 
9 
9 
9 
9 
9 
9 
9 
9 
9 
9 
9 
9 
9 
9 
9 
9 
9 
9 
9 
9 
9 
9 
9 
9 
9 
9 
9 
9 
9 
9 
9 
9 
9 
9 
9 
9 
9 
9 
9 
9 
9 
9 
9 
9 
9 
9 
9 
9 
9 
9 
9 
9 
9 
9 
9 
9 
9 
9 
9 
9 
9 
9 
9 
9 
9 
9 
9 
9 
9 
9 
9 
9 
9 
9 
9 
9 
9 
9 
9 
9 
9 
9 
9 
9 
9 
9 
9 
9 
9 
9 
9 
9 
9 
9 
9 
9 
9 
9 
9 
9 
9 
9 
9 
9 
9 
9 
9 
9 
9 
9 
9 
9 
9 
9 
9 
9 
9 
9 
9 
9 
9 
9 
9 
9 
9 
9 
9 
9 
9 
9 
9 
9 
9 
9 
9 
9 
9 
9 
9 
9 
9 
9 
9 
9 
9 
9 
9 
9 
9 
9 
9 
9 
9 
9 
9 
9 
9 
9 
9 
9 
9 
9 
9 
9 
9 
9 
9 
9 
9 
9 
9 
9 
9 
9 
9 
9 
9 
9 
9 
9 
9 
9 
9 
9 
9 
9 
9 
9 
9 
9 
9 
9 
9 
9 
9 
9 
9 
9 
9 
9 
9 
9 
9 
9 
9 
9 
9 
9 
9 
9 
9 
9 
9 
9 
9 
9 
9 
9 
9 
9 
9 
9 
9 
9 
9 
9 
9 
9 
9 
9 
9 
9 
9 
9 
9 
9 
9 
9 
9 
9 
9 
9 
9 
9 
9 
9 
9 
9 
9 
POINT_DATA 150
SCALARS GMDS_ID int 1
LOOKUP_TABLE default
0 1 2 3 4 5 6 7 8 9 10 11 12 13 14 15 16 17 18 19 20 21 22 23 24 25 26 27 28 29 30 31 32 33 34 35 36 37 38 39 40 41 42 43 44 45 46 47 48 49 50 51 52 53 54 55 56 57 58 59 60 61 62 63 64 65 66 67 68 69 70 71 72 73 74 75 76 77 78 79 80 81 82 83 84 85 86 87 88 89 90 91 92 93 94 95 96 97 98 99 100 101 102 103 104 105 106 107 108 109 110 111 112 113 114 115 116 117 118 119 120 121 122 123 124 125 126 127 128 129 130 131 132 133 134 135 136 137 138 139 140 141 142 143 144 145 146 147 148 149 
SCALARS geom_link_dim_0 int 1
LOOKUP_TABLE default
0 0 0 0 0 0 0 0 0 0 0 0 0 0 0 0 0 0 0 0 0 0 0 0 0 0 0 0 0 0 0 0 0 0 0 0 0 0 0 0 0 0 0 0 0 0 0 0 0 0 0 0 0 0 0 0 0 0 0 0 0 0 0 0 0 0 0 0 0 0 0 0 0 0 0 0 0 0 0 0 0 0 0 0 0 0 0 0 0 0 0 0 0 0 0 0 0 0 0 0 0 0 0 0 0 0 0 0 0 0 0 0 0 0 0 0 0 0 0 0 0 0 0 0 0 0 0 0 0 0 0 0 0 0 0 0 0 0 0 0 0 0 0 0 0 0 0 0 0 0 
SCALARS geom_link_id_0 int 1
LOOKUP_TABLE default
0 0 0 0 0 0 0 0 0 0 0 0 0 0 0 0 0 0 0 0 0 0 0 0 0 0 0 0 0 0 0 0 0 0 0 0 0 0 0 0 0 0 0 0 0 0 0 0 0 0 0 0 0 0 0 0 0 0 0 0 0 0 0 0 0 0 0 0 0 0 0 0 0 0 0 0 0 0 0 0 0 0 0 0 0 0 0 0 0 0 0 0 0 0 0 0 0 0 0 0 0 0 0 0 0 0 0 0 0 0 0 0 0 0 0 0 0 0 0 0 0 0 0 0 0 0 0 0 0 0 0 0 0 0 0 0 0 0 0 0 0 0 0 0 0 0 0 0 0 0 


CELL_DATA 296
SCALARS GMDS_ID int 1
LOOKUP_TABLE default
0 1 2 3 4 5 6 8 9 10 12 13 14 15 16 17 18 19 20 21 22 23 25 27 28 29 30 31 32 33 35 36 37 38 39 40 41 42 43 44 45 46 47 48 49 50 51 52 53 54 55 56 57 58 59 60 61 62 63 64 65 66 67 68 69 71 72 73 74 75 76 78 79 80 81 82 83 84 85 86 87 88 90 91 92 93 94 95 96 97 98 99 100 101 102 103 104 105 106 107 108 109 110 111 112 113 114 115 116 117 118 119 120 121 122 123 124 125 126 127 128 129 130 131 133 135 136 137 138 139 140 141 142 143 144 145 146 147 148 149 150 151 152 153 154 155 156 157 158 159 160 161 162 163 164 165 166 167 168 169 170 171 172 173 174 175 176 177 178 179 181 183 184 186 188 190 191 193 195 196 198 200 202 204 205 207 209 210 212 214 215 217 219 221 222 224 226 227 229 231 233 234 236 238 240 241 243 245 246 248 250 251 253 255 256 258 259 261 263 265 266 268 270 271 273 274 275 276 277 278 279 280 281 282 283 284 285 286 287 288 289 290 291 292 293 294 295 296 297 298 299 300 301 302 303 304 305 306 307 308 309 310 311 312 313 314 315 316 317 318 319 320 321 322 323 324 325 326 327 328 329 330 331 332 333 334 335 336 337 338 339 340 341 342 343 344 

SCALARS geom_link_dim_0 int 1
LOOKUP_TABLE default
0 0 0 0 0 0 0 0 0 0 0 0 0 0 0 0 0 0 0 0 0 0 0 0 0 0 0 0 0 0 0 0 0 0 0 0 0 0 0 0 0 0 0 0 0 0 0 0 0 0 0 0 0 0 0 0 0 0 0 0 0 0 0 0 0 0 0 0 0 0 0 0 0 0 0 0 0 0 0 0 0 0 0 0 0 0 0 0 0 0 0 0 0 0 0 0 0 0 0 0 0 0 0 0 0 0 0 0 0 0 0 0 0 0 0 0 0 0 0 0 0 0 0 0 0 0 0 0 0 0 0 0 0 0 0 0 0 0 0 0 0 0 0 0 0 0 0 0 0 0 0 0 0 0 0 0 0 0 0 0 0 0 0 0 0 0 0 0 0 0 0 0 0 0 0 0 0 0 0 0 0 0 0 0 0 0 0 0 0 0 0 0 0 0 0 0 0 0 0 0 0 0 0 0 0 0 0 0 0 0 0 0 0 0 0 0 0 0 0 0 0 0 0 0 0 0 0 0 0 0 0 0 0 0 0 0 0 0 0 0 0 0 0 0 0 0 0 0 0 0 0 0 0 0 0 0 0 0 0 0 0 0 0 0 0 0 0 0 0 0 0 0 0 0 0 0 0 0 0 0 0 0 0 0 0 0 0 0 0 0 0 0 0 0 0 0 

SCALARS geom_link_id_0 int 1
LOOKUP_TABLE default
0 0 0 0 0 0 0 0 0 0 0 0 0 0 0 0 0 0 0 0 0 0 0 0 0 0 0 0 0 0 0 0 0 0 0 0 0 0 0 0 0 0 0 0 0 0 0 0 0 0 0 0 0 0 0 0 0 0 0 0 0 0 0 0 0 0 0 0 0 0 0 0 0 0 0 0 0 0 0 0 0 0 0 0 0 0 0 0 0 0 0 0 0 0 0 0 0 0 0 0 0 0 0 0 0 0 0 0 0 0 0 0 0 0 0 0 0 0 0 0 0 0 0 0 0 0 0 0 0 0 0 0 0 0 0 0 0 0 0 0 0 0 0 0 0 0 0 0 0 0 0 0 0 0 0 0 0 0 0 0 0 0 0 0 0 0 0 0 0 0 0 0 0 0 0 0 0 0 0 0 0 0 0 0 0 0 0 0 0 0 0 0 0 0 0 0 0 0 0 0 0 0 0 0 0 0 0 0 0 0 0 0 0 0 0 0 0 0 0 0 0 0 0 0 0 0 0 0 0 0 0 0 0 0 0 0 0 0 0 0 0 0 0 0 0 0 0 0 0 0 0 0 0 0 0 0 0 0 0 0 0 0 0 0 0 0 0 0 0 0 0 0 0 0 0 0 0 0 0 0 0 0 0 0 0 0 0 0 0 0 0 0 0 0 0 0 

