# vtk DataFile Version 3.0
Generated by GMDS VTK Writer

ASCII
DATASET UNSTRUCTURED_GRID
POINTS 24 float
0 0 0
0 10 0
10 10 0
10 0 0
0 0 10
0 10 10
10 10 10
10 0 10
6 0 0
6 10 0
6 10 10
6 0 10
0 0 8
0 10 8
6 10 8
6 0 8
10 10 8
10 0 8
0 0 6
0 10 6
6 10 6
6 0 6
10 10 6
10 0 6

CELLS 29 145
4 13 14 10 5 
4 0 8 21 18 
4 21 20 14 15 
4 12 13 5 4 
4 0 1 9 8 
4 8 9 2 3 
4 8 9 20 21 
4 19 20 14 13 
4 4 5 10 11 
4 11 10 6 7 
4 1 9 20 19 
4 18 19 13 12 
4 0 1 19 18 
4 15 14 10 11 
4 12 15 11 4 
4 12 13 14 15 
4 16 14 10 6 
4 16 17 7 6 
4 17 15 11 7 
4 15 14 16 17 
4 18 21 15 12 
4 18 19 20 21 
4 2 9 20 22 
4 22 20 14 16 
4 2 3 23 22 
4 22 23 17 16 
4 3 8 21 23 
4 23 21 15 17 
4 21 20 22 23 

CELL_TYPES 29
9 
9 
9 
9 
9 
9 
9 
9 
9 
9 
9 
9 
9 
9 
9 
9 
9 
9 
9 
9 
9 
9 
9 
9 
9 
9 
9 
9 
9 
POINT_DATA 24
SCALARS GMDS_ID int 1
LOOKUP_TABLE default
0 1 2 3 4 5 6 7 8 9 10 11 12 13 14 15 16 17 18 19 20 21 22 23 
SCALARS geom_link_dim int 1
LOOKUP_TABLE default
1 1 1 1 1 1 1 1 2 2 2 2 2 2 3 3 2 2 2 2 3 3 2 2 
SCALARS geom_link_id int 1
LOOKUP_TABLE default
10 12 16 13 9 11 15 14 20 30 25 28 21 32 17 12 27 33 21 32 17 12 27 33 


CELL_DATA 29
SCALARS GMDS_ID int 1
LOOKUP_TABLE default
0 1 3 4 6 7 8 9 10 11 12 13 14 16 18 19 21 23 25 26 27 28 29 30 31 32 33 34 35 

SCALARS geom_link_dim int 1
LOOKUP_TABLE default
0 0 0 0 0 0 0 0 0 0 0 0 0 0 0 0 0 0 0 0 0 0 0 0 0 0 0 0 0 

SCALARS geom_link_id int 1
LOOKUP_TABLE default
0 -1 -1 0 0 0 -1 -1 0 0 -1 -1 -1 0 0 0 0 0 0 0 -1 -1 -1 -1 -1 -1 -1 -1 -1 

