# vtk DataFile Version 3.0
Generated by GMDS VTK Writer

ASCII
DATASET UNSTRUCTURED_GRID
POINTS 36 float
0 0 0
0 10 0
10 10 0
10 0 0
0 0 10
0 10 10
10 10 10
10 0 10
0 1 0
0 1 10
10 1 10
10 1 0
0 6 0
0 6 10
10 6 10
10 6 0
6 6 0
6 6 10
6 10 10
6 10 0
6 1 0
6 1 10
6 0 0
6 0 10
0 10 1
0 6 1
6 6 1
6 10 1
10 6 1
10 10 1
0 1 1
6 1 1
10 1 1
0 0 1
6 0 1
10 0 1

CELLS 52 260
4 15 16 26 28 
4 24 25 26 27 
4 24 27 18 5 
4 1 19 27 24 
4 18 17 14 6 
4 26 27 18 17 
4 5 13 17 18 
4 16 19 27 26 
4 25 26 17 13 
4 12 16 26 25 
4 24 25 13 5 
4 1 12 25 24 
4 1 12 16 19 
4 19 16 15 2 
4 9 13 17 21 
4 21 17 14 10 
4 8 12 16 20 
4 20 16 15 11 
4 4 9 21 23 
4 23 21 10 7 
4 0 8 20 22 
4 22 20 11 3 
4 28 26 17 14 
4 2 15 28 29 
4 29 28 14 6 
4 2 19 27 29 
4 29 27 18 6 
4 27 26 28 29 
4 8 12 25 30 
4 30 25 13 9 
4 16 20 31 26 
4 26 31 21 17 
4 8 20 31 30 
4 30 31 21 9 
4 30 25 26 31 
4 11 15 28 32 
4 32 28 14 10 
4 11 20 31 32 
4 32 31 21 10 
4 31 26 28 32 
4 0 8 30 33 
4 33 30 9 4 
4 20 22 34 31 
4 31 34 23 21 
4 0 22 34 33 
4 33 34 23 4 
4 33 30 31 34 
4 3 11 32 35 
4 35 32 10 7 
4 3 22 34 35 
4 35 34 23 7 
4 34 31 32 35 

CELL_TYPES 52
9 
9 
9 
9 
9 
9 
9 
9 
9 
9 
9 
9 
9 
9 
9 
9 
9 
9 
9 
9 
9 
9 
9 
9 
9 
9 
9 
9 
9 
9 
9 
9 
9 
9 
9 
9 
9 
9 
9 
9 
9 
9 
9 
9 
9 
9 
9 
9 
9 
9 
9 
9 
POINT_DATA 36
SCALARS GMDS_ID int 1
LOOKUP_TABLE default
0 1 2 3 4 5 6 7 8 9 10 11 12 13 14 15 16 17 18 19 20 21 22 23 24 25 26 27 28 29 30 31 32 33 34 35 
SCALARS geom_link_dim int 1
LOOKUP_TABLE default
1 1 1 1 1 1 1 1 2 2 2 2 2 2 2 2 3 3 2 2 3 3 2 2 2 3 0 3 3 2 3 0 3 2 3 2 
SCALARS geom_link_id int 1
LOOKUP_TABLE default
10 12 16 13 9 11 15 14 19 29 26 31 19 29 26 31 11 18 25 30 11 18 20 28 32 10 -1 17 13 27 10 -1 13 21 12 33 


CELL_DATA 52
SCALARS GMDS_ID int 1
LOOKUP_TABLE default
0 1 2 4 7 8 9 12 14 17 18 19 22 23 27 28 29 30 34 35 36 37 39 40 41 42 43 44 45 46 47 48 49 50 51 52 53 54 55 56 57 58 59 60 61 62 63 64 65 66 67 68 

SCALARS geom_link_dim int 1
LOOKUP_TABLE default
0 0 0 0 0 0 0 0 0 0 0 0 0 0 0 0 0 0 0 0 0 0 0 0 0 0 0 0 0 0 0 0 0 0 0 0 0 0 0 0 0 0 0 0 0 0 0 0 0 0 0 0 

SCALARS geom_link_id int 1
LOOKUP_TABLE default
-1 -1 -1 -1 0 -1 0 -1 -1 -1 -1 -1 0 0 0 0 0 0 0 0 0 0 -1 -1 -1 -1 -1 -1 -1 -1 -1 -1 -1 -1 -1 -1 -1 -1 -1 -1 -1 -1 -1 -1 -1 -1 -1 -1 -1 -1 -1 -1 

