# vtk DataFile Version 3.0
Generated by GMDS VTK Writer

ASCII
DATASET UNSTRUCTURED_GRID
POINTS 150 float
0 0 0
0 10 0
10 10 0
10 0 0
0 0 10
0 10 10
10 10 10
10 0 10
0 1 0
0 1 10
10 1 10
10 1 0
0 0 1
10 0 1
10 1 1
0 1 1
10 10 1
0 10 1
1 0 0
1 1 0
1 1 1
1 0 1
1 1 10
1 0 10
1 10 0
1 10 1
1 10 10
0 0 4
0 1 4
1 1 4
1 0 4
10 1 4
10 0 4
0 10 4
1 10 4
10 10 4
10 4 4
1 4 4
1 4 1
10 4 1
1 4 0
10 4 0
10 4 10
1 4 10
0 4 0
0 4 1
0 4 4
0 4 10
4 1 4
4 0 4
4 0 1
4 1 1
4 1 10
4 0 10
4 4 0
4 4 1
4 10 1
4 10 0
4 1 0
4 0 0
4 4 4
4 10 4
4 4 10
4 10 10
6 1 10
6 0 10
6 0 4
6 1 4
6 0 1
6 1 1
6 4 0
6 4 1
6 10 1
6 10 0
6 1 0
6 0 0
6 4 4
6 10 4
6 4 10
6 10 10
1 6 1
1 6 0
4 6 0
4 6 1
6 6 0
6 6 1
10 6 1
10 6 0
0 6 0
0 6 1
0 6 4
1 6 4
0 6 10
1 6 10
4 6 4
4 6 10
6 6 4
10 6 4
6 6 10
10 6 10
0 0 6
0 1 6
1 1 6
1 0 6
4 0 6
4 1 6
6 1 6
6 0 6
10 0 6
10 1 6
1 4 6
0 4 6
4 4 6
6 4 6
10 4 6
0 6 6
1 6 6
0 10 6
1 10 6
4 6 6
4 10 6
6 6 6
6 10 6
10 6 6
10 10 6
4 1 8
4 0 8
6 0 8
6 1 8
10 0 8
10 1 8
1 1 8
1 0 8
0 0 8
0 1 8
1 4 8
0 4 8
4 4 8
6 4 8
10 4 8
0 6 8
1 6 8
0 10 8
1 10 8
4 6 8
4 10 8
6 6 8
6 10 8
10 6 8
10 10 8

CELLS 296 1480
4 11 14 39 41 
4 3 11 14 13 
4 0 12 21 18 
4 105 112 137 125 
4 29 37 110 102 
4 105 104 107 106 
4 12 15 20 21 
4 72 73 2 16 
4 56 57 73 72 
4 27 28 29 30 
4 8 15 20 19 
4 27 30 21 12 
4 135 137 62 43 
4 0 8 19 18 
4 29 30 21 20 
4 110 112 137 135 
4 0 8 15 12 
4 48 67 106 105 
4 28 29 20 15 
4 38 40 54 55 
4 19 20 38 40 
4 134 131 135 136 
4 27 28 15 12 
4 134 136 47 9 
4 101 111 136 134 
4 70 71 39 41 
4 18 19 20 21 
4 49 66 107 104 
4 14 31 36 39 
4 4 9 22 23 
4 54 55 71 70 
4 67 66 68 69 
4 67 69 14 31 
4 106 107 108 109 
4 44 45 89 88 
4 135 136 47 43 
4 82 83 85 84 
4 110 111 136 135 
4 1 17 25 24 
4 48 51 69 67 
4 82 84 73 57 
4 22 23 53 52 
4 48 49 50 51 
4 20 29 37 38 
4 68 69 14 13 
4 50 51 69 68 
4 32 31 14 13 
4 66 68 13 32 
4 49 50 68 66 
4 131 135 43 22 
4 54 70 84 82 
4 20 29 48 51 
4 83 85 72 56 
4 20 21 50 51 
4 102 110 135 131 
4 33 34 25 17 
4 55 71 85 83 
4 21 30 49 50 
4 84 85 86 87 
4 133 134 131 132 
4 133 132 23 4 
4 29 30 49 48 
4 67 66 32 31 
4 48 49 66 67 
4 100 103 132 133 
4 134 131 22 9 
4 64 65 7 10 
4 101 102 131 134 
4 31 67 106 109 
4 133 134 9 4 
4 52 53 65 64 
4 8 15 45 44 
4 31 32 108 109 
4 15 20 38 45 
4 8 19 40 44 
4 32 66 107 108 
4 44 45 38 40 
4 28 29 37 46 
4 15 28 46 45 
4 66 67 106 107 
4 46 37 38 45 
4 9 22 43 47 
4 102 103 104 105 
4 100 101 134 133 
4 131 132 126 125 
4 87 84 73 2 
4 29 48 105 102 
4 41 70 84 87 
4 24 25 56 57 
4 86 87 2 16 
4 39 41 87 86 
4 48 49 104 105 
4 19 20 51 58 
4 86 85 72 16 
4 20 38 55 51 
4 39 71 85 86 
4 19 40 54 58 
4 84 85 72 73 
4 58 51 55 54 
4 18 19 58 59 
4 70 71 85 84 
4 18 21 50 59 
4 80 81 82 83 
4 59 58 51 50 
4 37 38 55 60 
4 80 83 56 25 
4 38 55 83 80 
4 25 34 61 56 
4 82 83 56 57 
4 30 49 104 103 
4 29 37 60 48 
4 54 55 83 82 
4 51 48 60 55 
4 131 125 52 22 
4 81 82 57 24 
4 22 43 62 52 
4 40 54 82 81 
4 102 105 125 131 
4 132 126 53 23 
4 80 81 24 25 
4 100 101 102 103 
4 38 40 81 80 
4 27 30 103 100 
4 51 58 74 69 
4 69 74 11 14 
4 51 55 71 69 
4 69 71 39 14 
4 54 58 74 70 
4 70 74 11 41 
4 74 69 71 70 
4 58 59 75 74 
4 74 75 3 11 
4 50 59 75 68 
4 68 75 3 13 
4 75 74 69 68 
4 55 60 76 71 
4 71 76 36 39 
4 29 30 103 102 
4 56 61 77 72 
4 72 77 35 16 
4 48 60 76 67 
4 67 76 36 31 
4 69 67 76 71 
4 103 104 126 132 
4 131 132 23 22 
4 52 62 78 64 
4 64 78 42 10 
4 102 103 132 131 
4 128 127 129 130 
4 128 130 10 64 
4 28 29 102 101 
4 27 28 101 100 
4 88 89 17 1 
4 38 45 89 80 
4 80 89 17 25 
4 40 44 88 81 
4 81 88 1 24 
4 88 89 80 81 
4 37 46 90 91 
4 91 90 33 34 
4 37 38 80 91 
4 91 80 25 34 
4 45 46 90 89 
4 89 90 33 17 
4 90 91 80 89 
4 43 47 92 93 
4 93 92 5 26 
4 106 109 130 128 
4 129 130 10 7 
4 108 109 130 129 
4 127 129 7 65 
4 107 108 129 127 
4 55 60 94 83 
4 83 94 61 56 
4 37 60 94 91 
4 91 94 61 34 
4 91 80 83 94 
4 43 62 95 93 
4 93 95 63 26 
4 125 126 127 128 
4 125 128 64 52 
4 105 106 128 125 
4 60 76 96 94 
4 94 96 77 61 
4 71 76 96 85 
4 85 96 77 72 
4 83 94 96 85 
4 36 76 96 97 
4 97 96 77 35 
4 36 39 86 97 
4 97 86 16 35 
4 85 96 97 86 
4 62 78 98 95 
4 95 98 79 63 
4 128 127 65 64 
4 106 107 127 128 
4 126 127 65 53 
4 42 78 98 99 
4 99 98 79 6 
4 104 107 127 126 
4 126 125 52 53 
4 104 105 125 126 
4 37 46 111 110 
4 28 46 111 101 
4 101 102 110 111 
4 37 60 112 110 
4 48 60 112 105 
4 102 110 112 105 
4 60 76 113 112 
4 67 76 113 106 
4 105 112 113 106 
4 36 76 113 114 
4 31 36 114 109 
4 106 113 114 109 
4 46 90 115 111 
4 90 91 116 115 
4 37 91 116 110 
4 110 111 115 116 
4 33 90 115 117 
4 33 34 118 117 
4 34 91 116 118 
4 116 115 117 118 
4 60 94 119 112 
4 91 94 119 116 
4 110 112 119 116 
4 61 94 119 120 
4 34 61 120 118 
4 116 119 120 118 
4 76 96 121 113 
4 94 96 121 119 
4 112 113 121 119 
4 77 96 121 122 
4 61 77 122 120 
4 119 121 122 120 
4 96 97 123 121 
4 36 97 123 114 
4 114 113 121 123 
4 35 77 122 124 
4 35 97 123 124 
4 123 121 122 124 
4 125 137 62 52 
4 131 135 137 125 
4 112 113 138 137 
4 137 138 78 62 
4 106 113 138 128 
4 128 138 78 64 
4 125 137 138 128 
4 113 114 139 138 
4 138 139 42 78 
4 109 114 139 130 
4 130 139 42 10 
4 128 138 139 130 
4 111 115 140 136 
4 136 140 92 47 
4 115 116 141 140 
4 140 141 93 92 
4 110 116 141 135 
4 135 141 93 43 
4 135 136 140 141 
4 115 117 142 140 
4 140 142 5 92 
4 117 118 143 142 
4 142 143 26 5 
4 116 118 143 141 
4 141 143 26 93 
4 141 140 142 143 
4 112 119 144 137 
4 137 144 95 62 
4 116 119 144 141 
4 141 144 95 93 
4 135 137 144 141 
4 119 120 145 144 
4 144 145 63 95 
4 118 120 145 143 
4 143 145 63 26 
4 141 144 145 143 
4 113 121 146 138 
4 138 146 98 78 
4 119 121 146 144 
4 144 146 98 95 
4 137 138 146 144 
4 121 122 147 146 
4 146 147 79 98 
4 120 122 147 145 
4 145 147 79 63 
4 144 146 147 145 
4 121 123 148 146 
4 146 148 99 98 
4 114 123 148 139 
4 139 148 99 42 
4 139 138 146 148 
4 122 124 149 147 
4 147 149 6 79 
4 123 124 149 148 
4 148 149 6 99 
4 148 146 147 149 

CELL_TYPES 296
9 
9 
9 
9 
9 
9 
9 
9 
9 
9 
9 
9 
9 
9 
9 
9 
9 
9 
9 
9 
9 
9 
9 
9 
9 
9 
9 
9 
9 
9 
9 
9 
9 
9 
9 
9 
9 
9 
9 
9 
9 
9 
9 
9 
9 
9 
9 
9 
9 
9 
9 
9 
9 
9 
9 
9 
9 
9 
9 
9 
9 
9 
9 
9 
9 
9 
9 
9 
9 
9 
9 
9 
9 
9 
9 
9 
9 
9 
9 
9 
9 
9 
9 
9 
9 
9 
9 
9 
9 
9 
9 
9 
9 
9 
9 
9 
9 
9 
9 
9 
9 
9 
9 
9 
9 
9 
9 
9 
9 
9 
9 
9 
9 
9 
9 
9 
9 
9 
9 
9 
9 
9 
9 
9 
9 
9 
9 
9 
9 
9 
9 
9 
9 
9 
9 
9 
9 
9 
9 
9 
9 
9 
9 
9 
9 
9 
9 
9 
9 
9 
9 
9 
9 
9 
9 
9 
9 
9 
9 
9 
9 
9 
9 
9 
9 
9 
9 
9 
9 
9 
9 
9 
9 
9 
9 
9 
9 
9 
9 
9 
9 
9 
9 
9 
9 
9 
9 
9 
9 
9 
9 
9 
9 
9 
9 
9 
9 
9 
9 
9 
9 
9 
9 
9 
9 
9 
9 
9 
9 
9 
9 
9 
9 
9 
9 
9 
9 
9 
9 
9 
9 
9 
9 
9 
9 
9 
9 
9 
9 
9 
9 
9 
9 
9 
9 
9 
9 
9 
9 
9 
9 
9 
9 
9 
9 
9 
9 
9 
9 
9 
9 
9 
9 
9 
9 
9 
9 
9 
9 
9 
9 
9 
9 
9 
9 
9 
9 
9 
9 
9 
9 
9 
9 
9 
9 
9 
9 
9 
9 
9 
9 
9 
9 
9 
9 
9 
9 
9 
9 
9 
9 
9 
9 
9 
9 
9 
POINT_DATA 150
SCALARS GMDS_ID int 1
LOOKUP_TABLE default
0 1 2 3 4 5 6 7 8 9 10 11 12 13 14 15 16 17 18 19 20 21 22 23 24 25 26 27 28 29 30 31 32 33 34 35 36 37 38 39 40 41 42 43 44 45 46 47 48 49 50 51 52 53 54 55 56 57 58 59 60 61 62 63 64 65 66 67 68 69 70 71 72 73 74 75 76 77 78 79 80 81 82 83 84 85 86 87 88 89 90 91 92 93 94 95 96 97 98 99 100 101 102 103 104 105 106 107 108 109 110 111 112 113 114 115 116 117 118 119 120 121 122 123 124 125 126 127 128 129 130 131 132 133 134 135 136 137 138 139 140 141 142 143 144 145 146 147 148 149 
SCALARS geom_link_dim_0 int 1
LOOKUP_TABLE default
0 0 0 0 0 0 0 0 0 0 0 0 0 0 0 0 0 0 0 0 0 0 0 0 0 0 0 0 0 0 0 0 0 0 0 0 0 0 0 0 0 0 0 0 0 0 0 0 0 0 0 0 0 0 0 0 0 0 0 0 0 0 0 0 0 0 0 0 0 0 0 0 0 0 0 0 0 0 0 0 0 0 0 0 0 0 0 0 0 0 0 0 0 0 0 0 0 0 0 0 0 0 0 0 0 0 0 0 0 0 0 0 0 0 0 0 0 0 0 0 0 0 0 0 0 0 0 0 0 0 0 0 0 0 0 0 0 0 0 0 0 0 0 0 0 0 0 0 0 0 
SCALARS geom_link_id_0 int 1
LOOKUP_TABLE default
0 0 0 0 0 0 0 0 0 0 0 0 0 0 0 0 0 0 0 0 0 0 0 0 0 0 0 0 0 0 0 0 0 0 0 0 0 0 0 0 0 0 0 0 0 0 0 0 0 0 0 0 0 0 0 0 0 0 0 0 0 0 0 0 0 0 0 0 0 0 0 0 0 0 0 0 0 0 0 0 0 0 0 0 0 0 0 0 0 0 0 0 0 0 0 0 0 0 0 0 0 0 0 0 0 0 0 0 0 0 0 0 0 0 0 0 0 0 0 0 0 0 0 0 0 0 0 0 0 0 0 0 0 0 0 0 0 0 0 0 0 0 0 0 0 0 0 0 0 0 


CELL_DATA 296
SCALARS GMDS_ID int 1
LOOKUP_TABLE default
0 1 2 3 4 5 6 7 8 9 10 12 13 14 15 16 17 18 19 20 21 22 23 24 26 27 28 29 30 31 32 33 34 35 36 37 38 39 40 41 42 43 44 45 46 47 48 49 50 51 52 53 54 55 56 57 58 59 60 61 62 63 65 66 67 68 69 70 71 72 74 75 76 77 79 80 81 82 84 85 86 87 88 89 91 92 93 94 95 96 98 99 100 101 102 103 104 105 106 107 108 109 110 111 112 113 115 116 117 118 119 120 121 122 123 124 125 126 127 128 129 130 132 133 134 135 136 137 138 139 140 141 142 143 144 145 146 148 149 150 152 153 154 155 156 157 158 159 160 161 162 164 165 166 167 168 169 170 171 172 173 174 175 176 177 178 179 180 181 182 183 184 185 186 187 188 189 190 191 192 193 194 195 196 197 198 199 200 201 202 203 204 205 206 207 208 209 210 211 212 213 214 216 218 220 221 223 225 226 228 230 231 233 235 236 238 240 242 243 245 247 249 250 252 254 255 257 259 260 262 264 265 267 269 270 272 274 275 277 279 280 281 282 283 284 285 286 287 288 289 290 291 292 293 294 295 296 297 298 299 300 301 302 303 304 305 306 307 308 309 310 311 312 313 314 315 316 317 318 319 320 321 322 323 324 325 326 327 328 329 330 331 332 333 334 335 

SCALARS geom_link_dim_0 int 1
LOOKUP_TABLE default
0 0 0 0 0 0 0 0 0 0 0 0 0 0 0 0 0 0 0 0 0 0 0 0 0 0 0 0 0 0 0 0 0 0 0 0 0 0 0 0 0 0 0 0 0 0 0 0 0 0 0 0 0 0 0 0 0 0 0 0 0 0 0 0 0 0 0 0 0 0 0 0 0 0 0 0 0 0 0 0 0 0 0 0 0 0 0 0 0 0 0 0 0 0 0 0 0 0 0 0 0 0 0 0 0 0 0 0 0 0 0 0 0 0 0 0 0 0 0 0 0 0 0 0 0 0 0 0 0 0 0 0 0 0 0 0 0 0 0 0 0 0 0 0 0 0 0 0 0 0 0 0 0 0 0 0 0 0 0 0 0 0 0 0 0 0 0 0 0 0 0 0 0 0 0 0 0 0 0 0 0 0 0 0 0 0 0 0 0 0 0 0 0 0 0 0 0 0 0 0 0 0 0 0 0 0 0 0 0 0 0 0 0 0 0 0 0 0 0 0 0 0 0 0 0 0 0 0 0 0 0 0 0 0 0 0 0 0 0 0 0 0 0 0 0 0 0 0 0 0 0 0 0 0 0 0 0 0 0 0 0 0 0 0 0 0 0 0 0 0 0 0 0 0 0 0 0 0 0 0 0 0 0 0 0 0 0 0 0 0 0 0 0 0 0 0 

SCALARS geom_link_id_0 int 1
LOOKUP_TABLE default
0 0 0 0 0 0 0 0 0 0 0 0 0 0 0 0 0 0 0 0 0 0 0 0 0 0 0 0 0 0 0 0 0 0 0 0 0 0 0 0 0 0 0 0 0 0 0 0 0 0 0 0 0 0 0 0 0 0 0 0 0 0 0 0 0 0 0 0 0 0 0 0 0 0 0 0 0 0 0 0 0 0 0 0 0 0 0 0 0 0 0 0 0 0 0 0 0 0 0 0 0 0 0 0 0 0 0 0 0 0 0 0 0 0 0 0 0 0 0 0 0 0 0 0 0 0 0 0 0 0 0 0 0 0 0 0 0 0 0 0 0 0 0 0 0 0 0 0 0 0 0 0 0 0 0 0 0 0 0 0 0 0 0 0 0 0 0 0 0 0 0 0 0 0 0 0 0 0 0 0 0 0 0 0 0 0 0 0 0 0 0 0 0 0 0 0 0 0 0 0 0 0 0 0 0 0 0 0 0 0 0 0 0 0 0 0 0 0 0 0 0 0 0 0 0 0 0 0 0 0 0 0 0 0 0 0 0 0 0 0 0 0 0 0 0 0 0 0 0 0 0 0 0 0 0 0 0 0 0 0 0 0 0 0 0 0 0 0 0 0 0 0 0 0 0 0 0 0 0 0 0 0 0 0 0 0 0 0 0 0 0 0 0 0 0 0 

