# vtk DataFile Version 3.0
Generated by GMDS VTK Writer

ASCII
DATASET UNSTRUCTURED_GRID
POINTS 24 float
0 0 0
0 10 0
10 10 0
10 0 0
0 0 10
0 10 10
10 10 10
10 0 10
0 1 0
0 1 10
10 1 10
10 1 0
0 6 0
0 6 10
10 6 10
10 6 0
6 6 0
6 6 10
6 10 10
6 10 0
6 1 0
6 1 10
6 0 0
6 0 10

CELLS 29 145
4 12 13 5 1 
4 8 9 13 12 
4 0 4 9 8 
4 18 17 14 6 
4 5 13 17 18 
4 3 7 10 11 
4 16 17 14 15 
4 12 13 17 16 
4 10 11 15 14 
4 14 15 2 6 
4 1 5 18 19 
4 19 18 6 2 
4 1 12 16 19 
4 19 16 15 2 
4 16 17 18 19 
4 8 9 21 20 
4 20 21 10 11 
4 9 13 17 21 
4 21 17 14 10 
4 8 12 16 20 
4 20 16 15 11 
4 20 21 17 16 
4 0 4 23 22 
4 22 23 7 3 
4 4 9 21 23 
4 23 21 10 7 
4 0 8 20 22 
4 22 20 11 3 
4 22 23 21 20 

CELL_TYPES 29
9 
9 
9 
9 
9 
9 
9 
9 
9 
9 
9 
9 
9 
9 
9 
9 
9 
9 
9 
9 
9 
9 
9 
9 
9 
9 
9 
9 
9 
POINT_DATA 24
SCALARS GMDS_ID int 1
LOOKUP_TABLE default
0 1 2 3 4 5 6 7 8 9 10 11 12 13 14 15 16 17 18 19 20 21 22 23 
SCALARS geom_link_dim int 1
LOOKUP_TABLE default
1 1 1 1 1 1 1 1 2 2 2 2 2 2 2 2 3 3 2 2 3 3 2 2 
SCALARS geom_link_id int 1
LOOKUP_TABLE default
10 12 16 13 9 11 15 14 19 29 26 31 19 29 26 31 11 18 25 30 11 18 20 28 


CELL_DATA 29
SCALARS GMDS_ID int 1
LOOKUP_TABLE default
3 5 6 7 9 10 11 13 15 16 20 21 22 23 24 25 26 27 28 29 30 31 32 33 34 35 36 37 38 

SCALARS geom_link_dim int 1
LOOKUP_TABLE default
0 0 0 0 0 0 0 0 0 0 0 0 0 0 0 0 0 0 0 0 0 0 0 0 0 0 0 0 0 

SCALARS geom_link_id int 1
LOOKUP_TABLE default
0 0 0 -1 -1 0 -1 -1 0 0 -1 -1 -1 -1 -1 -1 -1 -1 -1 -1 -1 -1 -1 -1 -1 -1 -1 -1 -1 

