# vtk DataFile Version 3.0
Generated by GMDS VTK Writer

ASCII
DATASET UNSTRUCTURED_GRID
POINTS 36 float
0 0 0
0 10 0
10 10 0
10 0 0
0 0 10
0 10 10
10 10 10
10 0 10
6 0 0
6 10 0
6 10 10
6 0 10
4 0 0
4 10 0
4 10 10
4 0 10
4 0 8
4 10 8
6 10 8
6 0 8
0 0 8
0 10 8
10 10 8
10 0 8
6 1 0
4 1 0
4 1 8
6 1 8
4 1 10
6 1 10
0 1 0
0 1 8
0 1 10
10 1 0
10 1 8
10 1 10

CELLS 52 260
4 15 16 26 28 
4 24 25 26 27 
4 24 27 18 9 
4 8 19 27 24 
4 18 17 14 10 
4 9 13 17 18 
4 26 27 18 17 
4 16 19 27 26 
4 25 26 17 13 
4 12 16 26 25 
4 24 25 13 9 
4 8 12 25 24 
4 8 12 16 19 
4 19 16 15 11 
4 1 13 17 21 
4 21 17 14 5 
4 0 12 16 20 
4 20 16 15 4 
4 2 9 18 22 
4 22 18 10 6 
4 3 8 19 23 
4 23 19 11 7 
4 28 26 17 14 
4 11 15 28 29 
4 29 28 14 10 
4 11 19 27 29 
4 29 27 18 10 
4 27 26 28 29 
4 0 12 25 30 
4 30 25 13 1 
4 16 20 31 26 
4 26 31 21 17 
4 0 20 31 30 
4 30 31 21 1 
4 30 25 26 31 
4 4 15 28 32 
4 32 28 14 5 
4 4 20 31 32 
4 32 31 21 5 
4 31 26 28 32 
4 3 8 24 33 
4 33 24 9 2 
4 19 23 34 27 
4 27 34 22 18 
4 3 23 34 33 
4 33 34 22 2 
4 33 24 27 34 
4 7 11 29 35 
4 35 29 10 6 
4 7 23 34 35 
4 35 34 22 6 
4 34 27 29 35 

CELL_TYPES 52
9 
9 
9 
9 
9 
9 
9 
9 
9 
9 
9 
9 
9 
9 
9 
9 
9 
9 
9 
9 
9 
9 
9 
9 
9 
9 
9 
9 
9 
9 
9 
9 
9 
9 
9 
9 
9 
9 
9 
9 
9 
9 
9 
9 
9 
9 
9 
9 
9 
9 
9 
9 
POINT_DATA 36
SCALARS GMDS_ID int 1
LOOKUP_TABLE default
0 1 2 3 4 5 6 7 8 9 10 11 12 13 14 15 16 17 18 19 20 21 22 23 24 25 26 27 28 29 30 31 32 33 34 35 
SCALARS geom_link_dim_0 int 1
LOOKUP_TABLE default
0 0 0 0 0 0 0 0 0 0 0 0 0 0 0 0 0 0 0 0 0 0 0 0 0 0 0 0 0 0 0 0 0 0 0 0 
SCALARS geom_link_id_0 int 1
LOOKUP_TABLE default
0 0 0 0 0 0 0 0 0 0 0 0 0 0 0 0 0 0 0 0 0 0 0 0 0 0 0 0 0 0 0 0 0 0 0 0 


CELL_DATA 52
SCALARS GMDS_ID int 1
LOOKUP_TABLE default
0 1 2 3 6 8 9 13 14 17 18 19 22 23 27 28 29 30 32 33 36 37 39 40 41 42 43 44 45 46 47 48 49 50 51 52 53 54 55 56 57 58 59 60 61 62 63 64 65 66 67 68 

SCALARS geom_link_dim_0 int 1
LOOKUP_TABLE default
0 0 0 0 0 0 0 0 0 0 0 0 0 0 0 0 0 0 0 0 0 0 0 0 0 0 0 0 0 0 0 0 0 0 0 0 0 0 0 0 0 0 0 0 0 0 0 0 0 0 0 0 

SCALARS geom_link_id_0 int 1
LOOKUP_TABLE default
0 0 0 0 0 0 0 0 0 0 0 0 0 0 0 0 0 0 0 0 0 0 0 0 0 0 0 0 0 0 0 0 0 0 0 0 0 0 0 0 0 0 0 0 0 0 0 0 0 0 0 0 

