# vtk DataFile Version 3.0
Generated by GMDS VTK Writer

ASCII
DATASET UNSTRUCTURED_GRID
POINTS 216 float
0 0 0
0 10 0
10 10 0
10 0 0
0 0 10
0 10 10
10 10 10
10 0 10
0 1 0
0 1 10
10 1 10
10 1 0
0 6 0
0 6 10
10 6 10
10 6 0
6 6 0
6 6 10
6 10 10
6 10 0
6 1 0
6 1 10
6 0 0
6 0 10
0 10 1
0 6 1
6 6 1
6 10 1
10 6 1
10 10 1
0 1 1
6 1 1
10 1 1
0 0 1
6 0 1
10 0 1
0 10 8
0 6 8
6 6 8
6 10 8
10 6 8
10 10 8
0 1 8
6 1 8
10 1 8
0 0 8
6 0 8
10 0 8
8 6 0
8 10 0
8 10 1
8 6 1
8 6 8
8 10 8
8 10 10
8 6 10
8 1 0
8 1 1
8 0 0
8 0 1
8 1 8
8 1 10
8 0 8
8 0 10
1 6 1
1 1 1
1 1 8
1 6 8
1 10 0
1 6 0
1 10 1
1 10 8
1 6 10
1 10 10
1 1 0
1 0 0
1 0 1
1 1 10
1 0 8
1 0 10
8 8 10
8 8 8
10 8 8
10 8 10
1 8 10
1 8 8
6 8 8
6 8 10
0 8 10
0 8 8
1 8 0
1 8 1
6 8 1
6 8 0
0 8 0
0 8 1
8 8 0
8 8 1
10 8 1
10 8 0
1 6 6
1 1 6
6 1 6
6 6 6
0 6 6
0 1 6
8 1 6
8 6 6
10 1 6
10 6 6
6 0 6
8 0 6
10 0 6
0 0 6
1 0 6
1 8 6
6 8 6
1 10 6
6 10 6
0 8 6
0 10 6
8 8 6
10 8 6
8 10 6
10 10 6
8 4 10
8 4 8
10 4 8
10 4 10
1 4 10
1 4 8
6 4 8
6 4 10
0 4 10
0 4 8
10 4 6
8 4 6
10 4 1
8 4 1
6 4 6
6 4 1
1 4 0
1 4 1
6 4 0
0 4 6
1 4 6
0 4 1
0 4 0
8 4 0
10 4 0
10 4 4
8 4 4
8 1 4
10 1 4
10 6 4
8 6 4
6 1 4
6 0 4
8 0 4
10 0 4
0 1 4
0 0 4
1 0 4
1 1 4
6 6 4
1 6 4
1 8 4
6 8 4
1 10 4
6 10 4
0 6 4
0 8 4
0 10 4
8 8 4
10 8 4
8 10 4
10 10 4
6 4 4
1 4 4
0 4 4
4 1 4
4 0 4
4 0 6
4 1 6
4 1 1
4 0 1
4 8 8
4 8 10
4 10 10
4 10 8
4 6 8
4 6 10
4 0 0
4 1 0
4 1 8
4 0 8
4 0 10
4 1 10
4 6 1
4 6 0
4 8 0
4 8 1
4 10 0
4 10 1
4 4 8
4 4 10
4 6 6
4 8 6
4 10 6
4 4 0
4 4 1
4 4 6
4 8 4
4 6 4
4 10 4
4 4 4

CELLS 449 2245
4 64 69 199 198 
4 88 84 73 5 
4 55 52 40 14 
4 194 195 196 197 
4 13 72 84 88 
4 13 37 67 72 
4 17 38 52 55 
4 89 85 71 36 
4 109 107 52 40 
4 194 197 21 43 
4 160 161 162 163 
4 160 163 101 105 
4 108 106 60 44 
4 66 77 197 194 
4 30 65 163 160 
4 37 67 85 89 
4 103 107 52 38 
4 197 196 23 21 
4 88 89 36 5 
4 13 37 89 88 
4 163 162 114 101 
4 65 76 162 163 
4 1 24 70 68 
4 87 86 39 18 
4 102 106 60 43 
4 17 38 86 87 
4 77 79 196 197 
4 161 162 114 113 
4 85 84 73 71 
4 104 100 67 37 
4 54 53 41 6 
4 195 196 23 46 
4 18 39 53 54 
4 12 25 64 69 
4 105 101 66 42 
4 78 79 196 195 
4 33 76 162 161 
4 160 161 113 105 
4 30 33 161 160 
4 152 158 159 153 
4 67 72 84 85 
4 48 51 28 15 
4 80 81 82 83 
4 153 159 112 108 
4 16 26 51 48 
4 32 35 159 153 
4 137 138 57 32 
4 0 8 30 33 
4 194 195 46 43 
4 20 22 34 31 
4 49 50 29 2 
4 83 80 54 6 
4 19 27 50 49 
4 14 55 80 83 
4 3 11 32 35 
4 159 158 111 112 
4 28 51 138 137 
4 35 59 158 159 
4 135 136 126 127 
4 156 157 158 152 
4 127 135 108 44 
4 156 152 106 102 
4 83 82 41 6 
4 14 40 82 83 
4 82 81 53 41 
4 40 109 135 127 
4 31 57 152 156 
4 152 158 111 106 
4 57 59 158 152 
4 126 136 106 60 
4 52 107 136 126 
4 42 45 4 9 
4 136 135 108 106 
4 43 46 23 21 
4 40 52 81 82 
4 81 80 54 53 
4 52 55 80 81 
4 107 109 135 136 
4 44 47 7 10 
4 132 131 126 125 
4 157 158 111 110 
4 34 59 158 157 
4 132 125 61 21 
4 17 55 125 132 
4 131 126 60 43 
4 38 52 126 131 
4 66 78 195 194 
4 156 157 110 102 
4 31 34 157 156 
4 20 31 57 56 
4 56 57 32 11 
4 154 155 151 150 
4 154 150 135 109 
4 28 137 150 154 
4 20 22 58 56 
4 56 58 3 11 
4 22 34 59 58 
4 58 59 35 3 
4 31 34 59 57 
4 57 59 35 32 
4 56 58 59 57 
4 133 134 130 129 
4 133 129 77 9 
4 155 151 136 107 
4 51 138 151 155 
4 13 72 129 133 
4 21 43 60 61 
4 61 60 44 10 
4 154 155 107 109 
4 28 51 155 154 
4 150 151 152 153 
4 134 130 66 42 
4 37 67 130 134 
4 43 46 62 60 
4 60 62 47 44 
4 133 134 42 9 
4 23 46 62 63 
4 63 62 47 7 
4 21 23 63 61 
4 61 63 7 10 
4 60 62 63 61 
4 5 36 71 73 
4 153 150 135 108 
4 13 37 134 133 
4 32 137 150 153 
4 153 152 106 108 
4 32 57 152 153 
4 8 30 65 74 
4 152 151 136 106 
4 0 8 74 75 
4 30 33 76 65 
4 0 33 76 75 
4 75 74 65 76 
4 9 42 66 77 
4 57 138 151 152 
4 150 151 136 135 
4 137 138 151 150 
4 42 45 78 66 
4 132 131 43 21 
4 4 45 78 79 
4 4 9 77 79 
4 66 78 79 77 
4 88 89 85 84 
4 38 52 81 86 
4 86 81 53 39 
4 17 55 80 87 
4 87 80 54 18 
4 87 86 81 80 
4 64 69 90 91 
4 91 90 68 70 
4 16 26 92 93 
4 93 92 27 19 
4 12 25 95 94 
4 94 95 24 1 
4 25 64 91 95 
4 95 91 70 24 
4 12 69 90 94 
4 94 90 68 1 
4 94 95 91 90 
4 48 51 97 96 
4 96 97 50 49 
4 28 51 97 98 
4 98 97 50 29 
4 15 28 98 99 
4 99 98 29 2 
4 15 48 96 99 
4 99 96 49 2 
4 96 97 98 99 
4 26 51 97 92 
4 92 97 50 27 
4 16 48 96 93 
4 93 96 49 19 
4 93 92 97 96 
4 17 38 131 132 
4 130 129 77 66 
4 67 72 129 130 
4 125 126 127 128 
4 128 125 61 10 
4 14 55 125 128 
4 128 127 44 10 
4 14 40 127 128 
4 127 126 60 44 
4 40 52 126 127 
4 126 125 61 60 
4 52 55 125 126 
4 102 110 46 43 
4 192 193 184 185 
4 110 111 62 46 
4 192 185 34 22 
4 106 111 62 60 
4 102 110 111 106 
4 75 76 185 192 
4 112 111 62 47 
4 184 193 20 31 
4 108 112 47 44 
4 106 111 112 108 
4 65 74 193 184 
4 105 113 45 42 
4 193 192 22 20 
4 113 114 78 45 
4 74 75 192 193 
4 101 114 78 66 
4 105 113 114 101 
4 190 191 187 186 
4 190 186 86 38 
4 100 115 85 67 
4 67 85 186 190 
4 191 187 87 17 
4 103 116 86 38 
4 72 84 187 191 
4 117 115 85 71 
4 190 191 17 38 
4 67 72 191 190 
4 118 116 86 39 
4 186 187 188 189 
4 115 119 89 85 
4 189 186 86 39 
4 104 119 89 37 
4 104 100 115 119 
4 71 85 186 189 
4 120 117 71 36 
4 189 188 18 39 
4 120 119 89 36 
4 119 115 117 120 
4 71 73 188 189 
4 107 121 81 52 
4 188 187 87 18 
4 121 122 82 81 
4 73 84 187 188 
4 109 122 82 40 
4 109 107 121 122 
4 187 186 86 87 
4 123 121 81 53 
4 84 85 186 187 
4 124 123 53 41 
4 184 185 181 180 
4 124 122 82 41 
4 122 121 123 124 
4 184 180 156 31 
4 116 121 81 86 
4 103 107 121 116 
4 65 163 180 184 
4 118 123 53 39 
4 116 121 123 118 
4 185 181 157 34 
4 76 162 181 185 
4 184 185 34 31 
4 65 76 185 184 
4 103 107 136 139 
4 139 136 106 102 
4 38 103 139 131 
4 131 139 102 43 
4 139 136 126 131 
4 26 51 138 140 
4 140 138 57 31 
4 180 181 182 183 
4 183 180 156 102 
4 101 163 180 183 
4 64 69 141 142 
4 142 141 74 65 
4 16 26 140 143 
4 143 140 31 20 
4 100 104 144 145 
4 145 144 105 101 
4 67 100 145 130 
4 130 145 101 66 
4 37 104 144 134 
4 134 144 105 42 
4 144 145 130 134 
4 25 64 142 146 
4 146 142 65 30 
4 183 182 110 102 
4 101 114 182 183 
4 182 181 157 110 
4 114 162 181 182 
4 181 180 156 157 
4 12 25 146 147 
4 147 146 30 8 
4 12 69 141 147 
4 147 141 74 8 
4 147 146 142 141 
4 48 51 138 148 
4 148 138 57 56 
4 15 28 137 149 
4 149 137 32 11 
4 15 48 148 149 
4 149 148 56 11 
4 148 138 137 149 
4 16 48 148 143 
4 143 148 56 20 
4 143 140 138 148 
4 162 163 180 181 
4 64 91 166 165 
4 165 166 115 100 
4 26 92 167 164 
4 164 167 116 103 
4 70 91 166 168 
4 168 166 115 117 
4 27 92 167 169 
4 169 167 116 118 
4 25 64 165 170 
4 170 165 100 104 
4 91 95 171 166 
4 166 171 119 115 
4 25 95 171 170 
4 170 171 119 104 
4 170 165 166 171 
4 24 70 168 172 
4 172 168 117 120 
4 24 95 171 172 
4 172 171 119 120 
4 171 166 168 172 
4 51 97 173 155 
4 155 173 121 107 
4 97 98 174 173 
4 173 174 122 121 
4 28 98 174 154 
4 154 174 122 109 
4 154 155 173 174 
4 50 97 173 175 
4 175 173 121 123 
4 29 50 175 176 
4 176 175 123 124 
4 29 98 174 176 
4 176 174 122 124 
4 174 173 175 176 
4 26 51 155 164 
4 164 155 107 103 
4 92 97 173 167 
4 167 173 121 116 
4 164 155 173 167 
4 27 50 175 169 
4 169 175 123 118 
4 167 173 175 169 
4 138 140 177 151 
4 151 177 139 136 
4 26 140 177 164 
4 164 177 139 103 
4 164 155 151 177 
4 31 140 177 156 
4 156 177 139 102 
4 177 151 152 156 
4 64 142 178 165 
4 165 178 145 100 
4 65 142 178 163 
4 163 178 145 101 
4 142 146 179 178 
4 178 179 144 145 
4 25 146 179 170 
4 170 179 144 104 
4 170 165 178 179 
4 30 146 179 160 
4 160 179 144 105 
4 179 178 163 160 
4 198 199 16 26 
4 69 90 200 199 
4 199 200 93 16 
4 90 91 201 200 
4 200 201 92 93 
4 64 91 201 198 
4 198 201 92 26 
4 198 199 200 201 
4 68 90 200 202 
4 202 200 93 19 
4 68 70 203 202 
4 202 203 27 19 
4 70 91 201 203 
4 203 201 92 27 
4 201 200 202 203 
4 129 130 204 205 
4 205 204 131 132 
4 77 129 205 197 
4 197 205 132 21 
4 66 130 204 194 
4 194 204 131 43 
4 204 205 197 194 
4 72 129 205 191 
4 191 205 132 17 
4 67 130 204 190 
4 190 204 131 38 
4 190 191 205 204 
4 78 114 182 195 
4 195 182 110 46 
4 66 101 183 194 
4 194 183 102 43 
4 183 182 195 194 
4 100 115 207 206 
4 206 207 116 103 
4 85 115 207 186 
4 186 207 116 86 
4 67 100 206 190 
4 190 206 103 38 
4 206 207 186 190 
4 115 117 208 207 
4 207 208 118 116 
4 71 117 208 189 
4 189 208 118 39 
4 208 207 186 189 
4 69 141 209 199 
4 199 209 143 16 
4 141 142 210 209 
4 209 210 140 143 
4 64 142 210 198 
4 198 210 140 26 
4 198 199 209 210 
4 74 141 209 193 
4 193 209 143 20 
4 65 142 210 184 
4 184 210 140 31 
4 210 209 193 184 
4 100 145 211 206 
4 206 211 139 103 
4 130 145 211 204 
4 204 211 139 131 
4 190 206 211 204 
4 101 145 211 183 
4 183 211 139 102 
4 204 211 183 194 
4 91 166 212 201 
4 201 212 167 92 
4 165 166 212 213 
4 213 212 167 164 
4 64 165 213 198 
4 198 213 164 26 
4 198 201 212 213 
4 115 166 212 207 
4 207 212 167 116 
4 100 165 213 206 
4 206 213 164 103 
4 213 212 207 206 
4 166 168 214 212 
4 212 214 169 167 
4 70 168 214 203 
4 203 214 169 27 
4 203 201 212 214 
4 117 168 214 208 
4 208 214 169 118 
4 214 212 207 208 
4 142 178 215 210 
4 210 215 177 140 
4 165 178 215 213 
4 213 215 177 164 
4 198 210 215 213 
4 145 178 215 211 
4 211 215 177 139 
4 213 215 211 206 
4 163 178 215 180 
4 180 215 177 156 
4 180 215 211 183 

CELL_TYPES 449
9 
9 
9 
9 
9 
9 
9 
9 
9 
9 
9 
9 
9 
9 
9 
9 
9 
9 
9 
9 
9 
9 
9 
9 
9 
9 
9 
9 
9 
9 
9 
9 
9 
9 
9 
9 
9 
9 
9 
9 
9 
9 
9 
9 
9 
9 
9 
9 
9 
9 
9 
9 
9 
9 
9 
9 
9 
9 
9 
9 
9 
9 
9 
9 
9 
9 
9 
9 
9 
9 
9 
9 
9 
9 
9 
9 
9 
9 
9 
9 
9 
9 
9 
9 
9 
9 
9 
9 
9 
9 
9 
9 
9 
9 
9 
9 
9 
9 
9 
9 
9 
9 
9 
9 
9 
9 
9 
9 
9 
9 
9 
9 
9 
9 
9 
9 
9 
9 
9 
9 
9 
9 
9 
9 
9 
9 
9 
9 
9 
9 
9 
9 
9 
9 
9 
9 
9 
9 
9 
9 
9 
9 
9 
9 
9 
9 
9 
9 
9 
9 
9 
9 
9 
9 
9 
9 
9 
9 
9 
9 
9 
9 
9 
9 
9 
9 
9 
9 
9 
9 
9 
9 
9 
9 
9 
9 
9 
9 
9 
9 
9 
9 
9 
9 
9 
9 
9 
9 
9 
9 
9 
9 
9 
9 
9 
9 
9 
9 
9 
9 
9 
9 
9 
9 
9 
9 
9 
9 
9 
9 
9 
9 
9 
9 
9 
9 
9 
9 
9 
9 
9 
9 
9 
9 
9 
9 
9 
9 
9 
9 
9 
9 
9 
9 
9 
9 
9 
9 
9 
9 
9 
9 
9 
9 
9 
9 
9 
9 
9 
9 
9 
9 
9 
9 
9 
9 
9 
9 
9 
9 
9 
9 
9 
9 
9 
9 
9 
9 
9 
9 
9 
9 
9 
9 
9 
9 
9 
9 
9 
9 
9 
9 
9 
9 
9 
9 
9 
9 
9 
9 
9 
9 
9 
9 
9 
9 
9 
9 
9 
9 
9 
9 
9 
9 
9 
9 
9 
9 
9 
9 
9 
9 
9 
9 
9 
9 
9 
9 
9 
9 
9 
9 
9 
9 
9 
9 
9 
9 
9 
9 
9 
9 
9 
9 
9 
9 
9 
9 
9 
9 
9 
9 
9 
9 
9 
9 
9 
9 
9 
9 
9 
9 
9 
9 
9 
9 
9 
9 
9 
9 
9 
9 
9 
9 
9 
9 
9 
9 
9 
9 
9 
9 
9 
9 
9 
9 
9 
9 
9 
9 
9 
9 
9 
9 
9 
9 
9 
9 
9 
9 
9 
9 
9 
9 
9 
9 
9 
9 
9 
9 
9 
9 
9 
9 
9 
9 
9 
9 
9 
9 
9 
9 
9 
9 
9 
9 
9 
9 
9 
9 
9 
9 
9 
9 
9 
9 
9 
9 
9 
9 
9 
9 
9 
9 
9 
9 
9 
9 
9 
9 
9 
9 
9 
9 
9 
9 
9 
9 
9 
POINT_DATA 216
SCALARS GMDS_ID int 1
LOOKUP_TABLE default
0 1 2 3 4 5 6 7 8 9 10 11 12 13 14 15 16 17 18 19 20 21 22 23 24 25 26 27 28 29 30 31 32 33 34 35 36 37 38 39 40 41 42 43 44 45 46 47 48 49 50 51 52 53 54 55 56 57 58 59 60 61 62 63 64 65 66 67 68 69 70 71 72 73 74 75 76 77 78 79 80 81 82 83 84 85 86 87 88 89 90 91 92 93 94 95 96 97 98 99 100 101 102 103 104 105 106 107 108 109 110 111 112 113 114 115 116 117 118 119 120 121 122 123 124 125 126 127 128 129 130 131 132 133 134 135 136 137 138 139 140 141 142 143 144 145 146 147 148 149 150 151 152 153 154 155 156 157 158 159 160 161 162 163 164 165 166 167 168 169 170 171 172 173 174 175 176 177 178 179 180 181 182 183 184 185 186 187 188 189 190 191 192 193 194 195 196 197 198 199 200 201 202 203 204 205 206 207 208 209 210 211 212 213 214 215 
SCALARS geom_link_dim int 1
LOOKUP_TABLE default
1 1 1 1 1 1 1 1 2 2 2 2 2 2 2 2 3 3 2 2 3 3 2 2 2 3 0 3 3 2 3 0 3 2 3 2 2 3 1 3 3 2 3 0 3 2 3 2 3 2 3 0 1 3 2 3 3 0 2 3 0 3 3 2 0 1 0 0 2 3 3 3 3 2 3 2 3 3 3 2 3 1 3 2 3 0 1 3 2 3 3 0 0 3 2 3 3 0 3 2 0 0 0 1 3 3 0 1 3 3 3 3 2 2 3 0 1 3 3 3 2 1 3 3 2 3 0 3 2 3 0 0 3 2 3 3 0 3 0 0 0 3 1 3 3 0 3 2 3 2 3 0 0 3 3 0 0 3 3 2 3 2 3 1 0 0 0 0 3 3 3 3 2 0 3 3 2 0 1 3 1 3 3 0 1 3 0 3 2 3 0 3 2 3 0 3 2 3 0 3 3 0 2 3 0 3 0 0 3 3 1 0 0 0 3 1 
SCALARS geom_link_id int 1
LOOKUP_TABLE default
10 12 16 13 9 11 15 14 19 29 26 31 19 29 26 31 11 18 25 30 11 18 20 28 32 10 0 17 13 27 10 -1 13 21 12 33 32 10 1 17 13 27 10 0 13 21 12 33 11 30 17 0 5 17 25 18 11 0 20 12 0 18 12 28 0 18 0 0 30 11 17 17 18 25 11 20 12 18 12 28 18 7 13 26 18 0 3 18 29 10 11 0 0 11 19 10 11 0 13 31 0 0 0 2 10 10 0 6 13 13 12 12 33 21 12 0 4 17 17 10 32 8 13 17 27 18 0 13 26 18 0 0 18 29 10 13 0 13 0 0 -1 11 20 11 10 0 10 19 11 31 13 0 0 13 13 0 -1 12 12 33 10 21 12 17 0 0 0 0 17 17 10 10 32 0 13 17 27 -1 19 10 22 12 12 -1 21 12 -1 18 25 17 -1 18 20 11 -1 12 28 18 -1 11 11 -1 30 17 -1 18 -1 -1 17 11 24 -1 -1 -1 17 23 


CELL_DATA 449
SCALARS GMDS_ID int 1
LOOKUP_TABLE default
0 1 2 3 4 7 8 9 10 11 12 13 14 15 16 17 18 19 20 21 25 26 28 29 30 31 33 35 36 38 39 40 41 42 43 44 45 46 47 48 49 50 51 52 53 54 56 57 58 59 60 61 62 63 64 65 66 67 68 69 70 71 72 73 74 75 76 77 78 79 80 81 82 83 84 85 86 87 88 89 90 91 93 94 95 96 97 98 99 100 101 102 103 104 105 106 107 108 109 110 111 112 113 114 115 116 117 118 119 120 121 122 123 124 125 126 127 128 129 130 131 132 134 135 137 138 139 140 142 143 145 147 149 150 152 153 154 157 159 160 162 164 165 166 167 168 169 170 171 172 175 176 180 181 182 183 184 185 186 187 188 189 190 191 192 193 194 195 196 197 198 199 200 201 204 205 206 207 208 209 210 211 212 213 214 215 216 217 218 219 220 221 222 223 224 225 226 227 228 229 230 231 232 233 236 237 238 240 241 243 244 245 247 248 250 251 252 253 254 255 256 257 258 259 260 261 262 263 264 265 266 267 268 269 270 271 272 273 274 275 276 277 278 279 280 281 282 283 284 285 286 287 288 289 290 291 292 293 294 295 298 299 303 304 305 306 307 308 309 310 311 312 313 314 315 316 317 318 319 320 321 322 323 324 325 326 327 328 329 330 331 335 342 343 346 347 349 350 353 354 356 357 358 359 360 361 362 363 364 365 366 367 368 369 370 371 372 373 374 375 376 377 378 379 380 381 382 383 384 385 386 387 388 389 390 391 392 393 394 395 396 397 398 399 403 404 406 407 408 409 410 411 412 413 414 415 416 417 418 419 420 421 422 423 424 425 426 427 428 429 430 431 432 433 434 435 436 437 438 439 440 441 442 443 444 445 446 447 448 449 450 451 452 453 454 455 456 457 458 459 460 461 462 463 464 465 466 467 468 469 470 471 472 473 474 475 476 477 478 479 480 481 482 483 484 485 486 487 488 489 490 491 492 493 494 495 496 497 498 499 500 501 502 503 504 505 506 507 508 

SCALARS geom_link_dim int 1
LOOKUP_TABLE default
0 0 0 0 0 0 0 0 0 0 0 0 0 0 0 0 0 0 0 0 0 0 0 0 0 0 0 0 0 0 0 0 0 0 0 0 0 0 0 0 0 0 0 0 0 0 0 0 0 0 0 0 0 0 0 0 0 0 0 0 0 0 0 0 0 0 0 0 0 0 0 0 0 0 0 0 0 0 0 0 0 0 0 0 0 0 0 0 0 0 0 0 0 0 0 0 0 0 0 0 0 0 0 0 0 0 0 0 0 0 0 0 0 0 0 0 0 0 0 0 0 0 0 0 0 0 0 0 0 0 0 0 0 0 0 0 0 0 0 0 0 0 0 0 0 0 0 0 0 0 0 0 0 0 0 0 0 0 0 0 0 0 0 0 0 0 0 0 0 0 0 0 0 0 0 0 0 0 0 0 0 0 0 0 0 0 0 0 0 0 0 0 0 0 0 0 0 0 0 0 0 0 0 0 0 0 0 0 0 0 0 0 0 0 0 0 0 0 0 0 0 0 0 0 0 0 0 0 0 0 0 0 0 0 0 0 0 0 0 0 0 0 0 0 0 0 0 0 0 0 0 0 0 0 0 0 0 0 0 0 0 0 0 0 0 0 0 0 0 0 0 0 0 0 0 0 0 0 0 0 0 0 0 0 0 0 0 0 0 0 0 0 0 0 0 0 0 0 0 0 0 0 0 0 0 0 0 0 0 0 0 0 0 0 0 0 0 0 0 0 0 0 0 0 0 0 0 0 0 0 0 0 0 0 0 0 0 0 0 0 0 0 0 0 0 0 0 0 0 0 0 0 0 0 0 0 0 0 0 0 0 0 0 0 0 0 0 0 0 0 0 0 0 0 0 0 0 0 0 0 0 0 0 0 0 0 0 0 0 0 0 0 0 0 0 0 0 0 0 0 0 0 0 0 0 0 0 0 0 0 0 0 0 0 0 0 0 0 0 0 0 0 0 0 0 0 0 0 0 0 0 0 0 0 0 0 0 0 0 0 0 0 0 0 0 0 0 0 0 

SCALARS geom_link_id int 1
LOOKUP_TABLE default
-1 0 0 -1 0 0 0 0 0 -1 0 0 0 -1 0 0 0 -1 0 0 0 0 0 0 0 0 -1 0 0 0 0 -1 0 0 0 -1 0 0 0 0 0 0 0 0 0 0 0 0 -1 0 0 0 0 0 0 0 0 0 0 0 0 0 0 0 0 0 0 0 0 0 0 0 0 0 0 0 0 0 0 0 0 0 0 0 0 0 -1 0 0 0 0 0 0 0 0 0 0 0 0 0 0 0 0 0 0 0 0 0 0 0 0 0 0 0 0 0 0 0 0 0 0 0 0 0 0 0 0 0 0 0 0 0 0 0 0 0 0 0 0 0 0 0 0 0 0 0 0 0 0 0 0 0 0 0 0 0 0 0 0 0 0 0 0 0 0 0 0 0 0 0 0 0 0 0 0 0 0 0 0 0 0 0 0 0 0 0 -1 0 -1 0 0 -1 0 -1 0 0 -1 0 -1 0 -1 0 0 -1 -1 0 -1 -1 0 -1 0 -1 -1 0 -1 0 -1 0 0 -1 0 -1 0 0 -1 0 -1 0 -1 0 0 -1 0 -1 0 -1 0 0 -1 0 0 -1 0 0 -1 -1 -1 -1 0 0 0 0 0 0 0 -1 -1 -1 0 0 0 0 0 0 0 0 0 0 0 0 0 -1 -1 -1 -1 -1 0 0 0 0 0 0 0 0 0 0 0 0 0 0 0 -1 0 0 0 0 0 0 0 0 0 0 0 0 0 0 0 0 0 0 0 0 0 0 0 0 0 0 0 0 0 0 0 0 0 0 0 0 0 0 0 0 0 0 0 0 0 0 0 0 0 0 0 0 0 0 0 0 0 0 0 0 0 0 -1 -1 -1 -1 -1 -1 -1 -1 -1 -1 -1 -1 -1 -1 -1 -1 -1 -1 -1 -1 -1 -1 -1 -1 -1 -1 -1 -1 -1 -1 -1 -1 -1 -1 -1 -1 -1 -1 -1 -1 -1 -1 -1 -1 -1 -1 -1 -1 -1 -1 -1 -1 -1 -1 -1 -1 -1 -1 -1 -1 -1 -1 -1 -1 -1 -1 -1 -1 -1 -1 -1 -1 -1 -1 -1 -1 -1 -1 -1 -1 -1 -1 -1 -1 -1 -1 -1 -1 -1 -1 -1 -1 -1 -1 -1 

