# vtk DataFile Version 3.0
Generated by GMDS VTK Writer

ASCII
DATASET UNSTRUCTURED_GRID
POINTS 48 float
0 0 0
0 10 0
10 10 0
10 0 0
0 0 10
0 10 10
10 10 10
10 0 10
6 0 0
6 10 0
6 10 10
6 0 10
4 0 0
4 10 0
4 10 10
4 0 10
4 0 8
4 10 8
6 10 8
6 0 8
0 0 8
0 10 8
10 10 8
10 0 8
6 1 0
4 1 0
4 1 8
6 1 8
4 1 10
6 1 10
0 1 0
0 1 8
0 1 10
10 1 0
10 1 8
10 1 10
6 6 0
4 6 0
4 6 8
6 6 8
4 6 10
6 6 10
0 6 0
0 6 8
0 6 10
10 6 0
10 6 8
10 6 10

CELLS 75 375
4 15 16 26 28 
4 24 25 26 27 
4 8 19 27 24 
4 25 30 42 37 
4 39 38 40 41 
4 18 17 14 10 
4 39 41 10 18 
4 9 13 17 18 
4 27 29 41 39 
4 40 41 10 14 
4 28 29 41 40 
4 16 19 27 26 
4 38 40 14 17 
4 26 28 40 38 
4 12 16 26 25 
4 8 12 25 24 
4 36 37 38 39 
4 36 39 18 9 
4 8 12 16 19 
4 19 16 15 11 
4 24 27 39 36 
4 38 39 18 17 
4 26 27 39 38 
4 1 13 17 21 
4 21 17 14 5 
4 0 12 16 20 
4 20 16 15 4 
4 37 38 17 13 
4 2 9 18 22 
4 22 18 10 6 
4 25 26 38 37 
4 36 37 13 9 
4 3 8 19 23 
4 23 19 11 7 
4 24 25 37 36 
4 11 15 28 29 
4 11 19 27 29 
4 27 26 28 29 
4 0 12 25 30 
4 16 20 31 26 
4 0 20 31 30 
4 30 25 26 31 
4 4 15 28 32 
4 4 20 31 32 
4 31 26 28 32 
4 3 8 24 33 
4 19 23 34 27 
4 3 23 34 33 
4 33 24 27 34 
4 7 11 29 35 
4 7 23 34 35 
4 34 27 29 35 
4 37 42 1 13 
4 26 31 43 38 
4 38 43 21 17 
4 30 31 43 42 
4 42 43 21 1 
4 42 37 38 43 
4 28 32 44 40 
4 40 44 5 14 
4 31 32 44 43 
4 43 44 5 21 
4 43 38 40 44 
4 24 33 45 36 
4 36 45 2 9 
4 27 34 46 39 
4 39 46 22 18 
4 33 34 46 45 
4 45 46 22 2 
4 45 36 39 46 
4 29 35 47 41 
4 41 47 6 10 
4 34 35 47 46 
4 46 47 6 22 
4 46 39 41 47 

CELL_TYPES 75
9 
9 
9 
9 
9 
9 
9 
9 
9 
9 
9 
9 
9 
9 
9 
9 
9 
9 
9 
9 
9 
9 
9 
9 
9 
9 
9 
9 
9 
9 
9 
9 
9 
9 
9 
9 
9 
9 
9 
9 
9 
9 
9 
9 
9 
9 
9 
9 
9 
9 
9 
9 
9 
9 
9 
9 
9 
9 
9 
9 
9 
9 
9 
9 
9 
9 
9 
9 
9 
9 
9 
9 
9 
9 
9 
POINT_DATA 48
SCALARS GMDS_ID int 1
LOOKUP_TABLE default
0 1 2 3 4 5 6 7 8 9 10 11 12 13 14 15 16 17 18 19 20 21 22 23 24 25 26 27 28 29 30 31 32 33 34 35 36 37 38 39 40 41 42 43 44 45 46 47 
SCALARS geom_link_dim_0 int 1
LOOKUP_TABLE default
0 0 0 0 0 0 0 0 0 0 0 0 0 0 0 0 0 0 0 0 0 0 0 0 0 0 0 0 0 0 0 0 0 0 0 0 0 0 0 0 0 0 0 0 0 0 0 0 
SCALARS geom_link_id_0 int 1
LOOKUP_TABLE default
0 0 0 0 0 0 0 0 0 0 0 0 0 0 0 0 0 0 0 0 0 0 0 0 0 0 0 0 0 0 0 0 0 0 0 0 0 0 0 0 0 0 0 0 0 0 0 0 


CELL_DATA 75
SCALARS GMDS_ID int 1
LOOKUP_TABLE default
0 1 3 4 5 6 7 8 10 11 12 13 15 16 17 19 20 21 22 23 24 25 26 27 28 29 30 31 32 33 34 35 36 37 38 40 42 44 45 47 49 51 52 54 56 57 59 61 63 64 66 68 69 70 71 72 73 74 75 76 77 78 79 80 81 82 83 84 85 86 87 88 89 90 91 

SCALARS geom_link_dim_0 int 1
LOOKUP_TABLE default
0 0 0 0 0 0 0 0 0 0 0 0 0 0 0 0 0 0 0 0 0 0 0 0 0 0 0 0 0 0 0 0 0 0 0 0 0 0 0 0 0 0 0 0 0 0 0 0 0 0 0 0 0 0 0 0 0 0 0 0 0 0 0 0 0 0 0 0 0 0 0 0 0 0 0 

SCALARS geom_link_id_0 int 1
LOOKUP_TABLE default
0 0 0 0 0 0 0 0 0 0 0 0 0 0 0 0 0 0 0 0 0 0 0 0 0 0 0 0 0 0 0 0 0 0 0 0 0 0 0 0 0 0 0 0 0 0 0 0 0 0 0 0 0 0 0 0 0 0 0 0 0 0 0 0 0 0 0 0 0 0 0 0 0 0 0 

