# vtk DataFile Version 3.0
Generated by GMDS VTK Writer

ASCII
DATASET UNSTRUCTURED_GRID
POINTS 36 float
0 0 0
0 10 0
10 10 0
10 0 0
0 0 10
0 10 10
10 10 10
10 0 10
6 0 0
6 10 0
6 10 10
6 0 10
0 0 8
0 10 8
6 10 8
6 0 8
10 10 8
10 0 8
0 0 6
0 10 6
6 10 6
6 0 6
10 10 6
10 0 6
0 6 0
6 6 0
6 6 6
0 6 6
0 6 8
6 6 8
6 6 10
0 6 10
10 6 8
10 6 10
10 6 0
10 6 6

CELLS 52 260
4 13 14 10 5 
4 0 8 21 18 
4 0 18 27 24 
4 27 26 20 19 
4 19 20 14 13 
4 1 9 20 19 
4 18 21 26 27 
4 25 26 20 9 
4 12 15 11 4 
4 8 21 26 25 
4 16 14 10 6 
4 24 25 9 1 
4 0 8 25 24 
4 17 15 11 7 
4 18 21 15 12 
4 2 9 20 22 
4 22 20 14 16 
4 3 8 21 23 
4 23 21 15 17 
4 24 27 19 1 
4 24 25 26 27 
4 12 15 29 28 
4 28 29 14 13 
4 11 15 29 30 
4 30 29 14 10 
4 4 11 30 31 
4 31 30 10 5 
4 4 12 28 31 
4 31 28 13 5 
4 28 29 30 31 
4 15 17 32 29 
4 29 32 16 14 
4 7 11 30 33 
4 33 30 10 6 
4 7 17 32 33 
4 33 32 16 6 
4 32 29 30 33 
4 15 21 26 29 
4 29 26 20 14 
4 12 18 27 28 
4 28 27 19 13 
4 27 26 29 28 
4 3 8 25 34 
4 34 25 9 2 
4 21 23 35 26 
4 26 35 22 20 
4 3 23 35 34 
4 34 35 22 2 
4 34 25 26 35 
4 17 23 35 32 
4 32 35 22 16 
4 35 26 29 32 

CELL_TYPES 52
9 
9 
9 
9 
9 
9 
9 
9 
9 
9 
9 
9 
9 
9 
9 
9 
9 
9 
9 
9 
9 
9 
9 
9 
9 
9 
9 
9 
9 
9 
9 
9 
9 
9 
9 
9 
9 
9 
9 
9 
9 
9 
9 
9 
9 
9 
9 
9 
9 
9 
9 
9 
POINT_DATA 36
SCALARS GMDS_ID int 1
LOOKUP_TABLE default
0 1 2 3 4 5 6 7 8 9 10 11 12 13 14 15 16 17 18 19 20 21 22 23 24 25 26 27 28 29 30 31 32 33 34 35 
SCALARS geom_link_dim int 1
LOOKUP_TABLE default
1 1 1 1 1 1 1 1 2 2 2 2 2 2 3 3 2 2 2 2 3 3 2 2 2 3 0 3 3 0 3 2 3 2 2 3 
SCALARS geom_link_id int 1
LOOKUP_TABLE default
10 12 16 13 9 11 15 14 20 30 25 28 21 32 17 12 27 33 21 32 17 12 27 33 19 11 -1 10 10 -1 18 29 13 26 31 13 


CELL_DATA 52
SCALARS GMDS_ID int 1
LOOKUP_TABLE default
0 1 2 5 9 12 15 17 18 20 21 22 24 25 27 29 30 33 34 36 37 38 39 40 41 42 43 44 45 46 47 48 49 50 51 52 53 54 55 56 57 58 59 60 61 62 63 64 65 66 67 68 

SCALARS geom_link_dim int 1
LOOKUP_TABLE default
0 0 0 0 0 0 0 0 0 0 0 0 0 0 0 0 0 0 0 0 0 0 0 0 0 0 0 0 0 0 0 0 0 0 0 0 0 0 0 0 0 0 0 0 0 0 0 0 0 0 0 0 

SCALARS geom_link_id int 1
LOOKUP_TABLE default
0 0 -1 -1 0 0 -1 -1 0 -1 0 -1 -1 0 0 0 0 0 0 -1 -1 -1 -1 -1 -1 -1 -1 -1 -1 -1 -1 -1 -1 -1 -1 -1 -1 -1 -1 -1 -1 -1 -1 -1 -1 -1 -1 -1 -1 -1 -1 -1 

