# vtk DataFile Version 3.0
Generated by GMDS VTK Writer

ASCII
DATASET UNSTRUCTURED_GRID
POINTS 120 float
0 0 0
0 10 0
10 10 0
10 0 0
0 0 10
0 10 10
10 10 10
10 0 10
6 0 0
6 10 0
6 10 10
6 0 10
4 0 0
4 10 0
4 10 10
4 0 10
4 0 8
4 10 8
6 10 8
6 0 8
0 0 8
0 10 8
10 10 8
10 0 8
6 1 0
4 1 0
4 1 8
6 1 8
4 1 10
6 1 10
0 1 0
0 1 8
0 1 10
10 1 0
10 1 8
10 1 10
6 6 0
4 6 0
4 6 8
6 6 8
4 6 10
6 6 10
0 6 0
0 6 8
0 6 10
10 6 0
10 6 8
10 6 10
6 8 8
4 8 8
4 8 10
6 8 10
6 8 0
4 8 0
0 8 0
0 8 8
0 8 10
10 8 0
10 8 8
10 8 10
8 0 0
8 0 8
8 1 8
8 1 0
8 1 10
8 6 10
8 6 8
8 8 0
8 8 8
8 10 8
8 10 0
8 6 0
8 0 10
8 8 10
8 10 10
6 4 0
4 4 0
4 4 8
6 4 8
8 4 8
8 4 10
10 4 10
10 4 8
4 4 10
6 4 10
0 4 0
0 4 8
0 4 10
8 4 0
10 4 0
4 6 6
0 6 6
0 8 6
4 8 6
6 0 6
4 0 6
4 1 6
6 1 6
6 8 6
4 10 6
6 10 6
0 0 6
0 1 6
6 6 6
8 0 6
8 1 6
10 1 6
10 0 6
0 10 6
6 4 6
4 4 6
8 8 6
8 10 6
10 8 6
10 10 6
8 6 6
10 6 6
0 4 6
8 4 6
10 4 6

CELLS 227 1135
4 15 16 26 28 
4 37 42 54 53 
4 99 93 49 17 
4 39 38 40 41 
4 18 17 14 10 
4 13 53 93 99 
4 98 93 49 48 
4 52 53 93 98 
4 94 95 96 97 
4 16 19 27 26 
4 66 65 47 46 
4 94 97 27 19 
4 8 12 25 24 
4 39 41 65 66 
4 19 16 15 11 
4 8 24 97 94 
4 97 96 26 27 
4 24 25 96 97 
4 21 17 14 5 
4 20 16 15 4 
4 95 96 26 16 
4 83 84 41 40 
4 28 29 84 83 
4 12 25 96 95 
4 62 64 35 34 
4 77 83 40 38 
4 26 28 83 77 
4 94 95 16 19 
4 11 15 28 29 
4 11 19 27 29 
4 52 53 13 9 
4 27 26 28 29 
4 0 12 25 30 
4 36 37 53 52 
4 16 20 31 26 
4 48 49 50 51 
4 48 51 10 18 
4 4 15 28 32 
4 39 41 51 48 
4 4 20 31 32 
4 50 51 10 14 
4 31 26 28 32 
4 79 80 81 82 
4 40 41 51 50 
4 82 79 66 46 
4 49 50 14 17 
4 38 40 50 49 
4 34 62 79 82 
4 82 81 47 46 
4 49 48 18 17 
4 7 23 34 35 
4 38 39 48 49 
4 34 35 81 82 
4 27 29 64 62 
4 8 12 95 94 
4 90 91 92 93 
4 60 63 33 3 
4 90 93 49 38 
4 8 24 63 60 
4 37 53 93 90 
4 43 38 40 44 
4 81 80 65 47 
4 35 64 80 81 
4 61 62 34 23 
4 93 92 55 49 
4 19 27 62 61 
4 79 80 65 66 
4 62 64 80 79 
4 53 54 92 93 
4 53 54 1 13 
4 38 43 55 49 
4 49 55 21 17 
4 40 44 56 50 
4 50 56 5 14 
4 43 44 56 55 
4 55 56 5 21 
4 55 49 50 56 
4 77 78 39 38 
4 26 27 78 77 
4 75 76 37 36 
4 46 47 59 58 
4 58 59 6 22 
4 24 25 76 75 
4 91 92 55 43 
4 18 48 68 69 
4 69 68 58 22 
4 9 52 67 70 
4 70 67 57 2 
4 39 48 68 66 
4 66 68 58 46 
4 36 52 67 71 
4 71 67 57 45 
4 42 54 92 91 
4 90 91 43 38 
4 37 42 91 90 
4 11 19 61 72 
4 72 61 23 7 
4 11 29 64 72 
4 72 64 35 7 
4 72 61 62 64 
4 48 51 73 68 
4 68 73 59 58 
4 10 51 73 74 
4 74 73 59 6 
4 10 18 69 74 
4 74 69 22 6 
4 68 73 74 69 
4 41 51 73 65 
4 65 73 59 47 
4 66 65 73 68 
4 27 29 84 78 
4 78 84 41 39 
4 78 77 83 84 
4 25 30 85 76 
4 76 85 42 37 
4 26 31 86 77 
4 77 86 43 38 
4 28 32 87 83 
4 83 87 44 40 
4 31 32 87 86 
4 86 87 44 43 
4 86 77 83 87 
4 29 64 80 84 
4 84 80 65 41 
4 27 62 79 78 
4 78 79 66 39 
4 78 84 80 79 
4 33 63 88 89 
4 89 88 71 45 
4 24 63 88 75 
4 75 88 71 36 
4 9 13 99 100 
4 100 99 17 18 
4 9 52 98 100 
4 100 98 48 18 
4 98 93 99 100 
4 0 12 95 101 
4 101 95 16 20 
4 25 30 102 96 
4 96 102 31 26 
4 0 30 102 101 
4 101 102 31 20 
4 101 95 96 102 
4 36 37 90 103 
4 103 90 38 39 
4 36 52 98 103 
4 103 98 48 39 
4 103 90 93 98 
4 60 63 105 104 
4 104 105 62 61 
4 33 63 105 106 
4 106 105 62 34 
4 3 33 106 107 
4 107 106 34 23 
4 3 60 104 107 
4 107 104 61 23 
4 104 105 106 107 
4 24 63 105 97 
4 97 105 62 27 
4 8 60 104 94 
4 94 104 61 19 
4 94 97 105 104 
4 1 54 92 108 
4 108 92 55 21 
4 1 13 99 108 
4 108 99 17 21 
4 93 92 108 99 
4 75 76 110 109 
4 109 110 77 78 
4 37 76 110 90 
4 90 110 77 38 
4 36 75 109 103 
4 103 109 78 39 
4 109 110 90 103 
4 25 76 110 96 
4 96 110 77 26 
4 24 75 109 97 
4 97 109 78 27 
4 97 96 110 109 
4 52 67 111 98 
4 98 111 68 48 
4 67 70 112 111 
4 111 112 69 68 
4 9 70 112 100 
4 100 112 69 18 
4 100 98 111 112 
4 57 67 111 113 
4 113 111 68 58 
4 2 57 113 114 
4 114 113 58 22 
4 2 70 112 114 
4 114 112 69 22 
4 112 111 113 114 
4 67 71 115 111 
4 111 115 66 68 
4 36 71 115 103 
4 103 115 66 39 
4 103 98 111 115 
4 45 57 113 116 
4 116 113 58 46 
4 45 71 115 116 
4 116 115 66 46 
4 115 111 113 116 
4 30 85 117 102 
4 102 117 86 31 
4 76 85 117 110 
4 110 117 86 77 
4 96 102 117 110 
4 42 85 117 91 
4 91 117 86 43 
4 110 117 91 90 
4 63 88 118 105 
4 105 118 79 62 
4 88 89 119 118 
4 118 119 82 79 
4 33 89 119 106 
4 106 119 82 34 
4 106 105 118 119 
4 71 88 118 115 
4 115 118 79 66 
4 45 89 119 116 
4 116 119 82 46 
4 119 118 115 116 
4 75 88 118 109 
4 109 118 79 78 
4 97 105 118 109 
4 109 118 115 103 

CELL_TYPES 227
9 
9 
9 
9 
9 
9 
9 
9 
9 
9 
9 
9 
9 
9 
9 
9 
9 
9 
9 
9 
9 
9 
9 
9 
9 
9 
9 
9 
9 
9 
9 
9 
9 
9 
9 
9 
9 
9 
9 
9 
9 
9 
9 
9 
9 
9 
9 
9 
9 
9 
9 
9 
9 
9 
9 
9 
9 
9 
9 
9 
9 
9 
9 
9 
9 
9 
9 
9 
9 
9 
9 
9 
9 
9 
9 
9 
9 
9 
9 
9 
9 
9 
9 
9 
9 
9 
9 
9 
9 
9 
9 
9 
9 
9 
9 
9 
9 
9 
9 
9 
9 
9 
9 
9 
9 
9 
9 
9 
9 
9 
9 
9 
9 
9 
9 
9 
9 
9 
9 
9 
9 
9 
9 
9 
9 
9 
9 
9 
9 
9 
9 
9 
9 
9 
9 
9 
9 
9 
9 
9 
9 
9 
9 
9 
9 
9 
9 
9 
9 
9 
9 
9 
9 
9 
9 
9 
9 
9 
9 
9 
9 
9 
9 
9 
9 
9 
9 
9 
9 
9 
9 
9 
9 
9 
9 
9 
9 
9 
9 
9 
9 
9 
9 
9 
9 
9 
9 
9 
9 
9 
9 
9 
9 
9 
9 
9 
9 
9 
9 
9 
9 
9 
9 
9 
9 
9 
9 
9 
9 
9 
9 
9 
9 
9 
9 
9 
9 
9 
9 
9 
9 
9 
9 
9 
9 
9 
9 
POINT_DATA 120
SCALARS GMDS_ID int 1
LOOKUP_TABLE default
0 1 2 3 4 5 6 7 8 9 10 11 12 13 14 15 16 17 18 19 20 21 22 23 24 25 26 27 28 29 30 31 32 33 34 35 36 37 38 39 40 41 42 43 44 45 46 47 48 49 50 51 52 53 54 55 56 57 58 59 60 61 62 63 64 65 66 67 68 69 70 71 72 73 74 75 76 77 78 79 80 81 82 83 84 85 86 87 88 89 90 91 92 93 94 95 96 97 98 99 100 101 102 103 104 105 106 107 108 109 110 111 112 113 114 115 116 117 118 119 
SCALARS geom_link_dim_0 int 1
LOOKUP_TABLE default
0 0 0 0 0 0 0 0 0 0 0 0 0 0 0 0 0 0 0 0 0 0 0 0 0 0 0 0 0 0 0 0 0 0 0 0 0 0 0 0 0 0 0 0 0 0 0 0 0 0 0 0 0 0 0 0 0 0 0 0 0 0 0 0 0 0 0 0 0 0 0 0 0 0 0 0 0 0 0 0 0 0 0 0 0 0 0 0 0 0 0 0 0 0 0 0 0 0 0 0 0 0 0 0 0 0 0 0 0 0 0 0 0 0 0 0 0 0 0 0 
SCALARS geom_link_id_0 int 1
LOOKUP_TABLE default
0 0 0 0 0 0 0 0 0 0 0 0 0 0 0 0 0 0 0 0 0 0 0 0 0 0 0 0 0 0 0 0 0 0 0 0 0 0 0 0 0 0 0 0 0 0 0 0 0 0 0 0 0 0 0 0 0 0 0 0 0 0 0 0 0 0 0 0 0 0 0 0 0 0 0 0 0 0 0 0 0 0 0 0 0 0 0 0 0 0 0 0 0 0 0 0 0 0 0 0 0 0 0 0 0 0 0 0 0 0 0 0 0 0 0 0 0 0 0 0 


CELL_DATA 227
SCALARS GMDS_ID int 1
LOOKUP_TABLE default
0 2 4 5 6 7 10 11 12 13 15 16 19 21 23 24 25 26 28 30 31 32 33 34 35 36 37 38 40 42 43 44 45 46 47 48 50 52 53 54 55 56 57 58 59 60 62 63 64 65 66 67 68 69 70 72 73 75 76 77 79 80 82 83 84 85 86 87 89 92 93 94 98 99 100 101 102 105 106 111 112 113 114 115 118 119 122 123 127 128 129 130 132 133 134 135 136 137 138 139 140 141 142 143 144 145 146 147 148 149 150 151 152 153 154 155 156 160 161 162 163 164 165 166 167 168 169 174 175 177 178 180 181 182 183 184 185 186 187 188 189 190 191 192 193 194 195 196 197 198 199 200 201 202 203 204 205 206 207 208 209 210 211 212 213 214 215 216 217 218 219 220 221 222 223 224 225 226 227 228 229 230 231 232 233 234 235 236 237 238 239 240 241 242 243 244 245 246 247 248 249 250 251 252 253 254 255 256 257 258 259 260 261 262 263 264 265 266 267 268 269 270 271 272 273 274 275 

SCALARS geom_link_dim_0 int 1
LOOKUP_TABLE default
0 0 0 0 0 0 0 0 0 0 0 0 0 0 0 0 0 0 0 0 0 0 0 0 0 0 0 0 0 0 0 0 0 0 0 0 0 0 0 0 0 0 0 0 0 0 0 0 0 0 0 0 0 0 0 0 0 0 0 0 0 0 0 0 0 0 0 0 0 0 0 0 0 0 0 0 0 0 0 0 0 0 0 0 0 0 0 0 0 0 0 0 0 0 0 0 0 0 0 0 0 0 0 0 0 0 0 0 0 0 0 0 0 0 0 0 0 0 0 0 0 0 0 0 0 0 0 0 0 0 0 0 0 0 0 0 0 0 0 0 0 0 0 0 0 0 0 0 0 0 0 0 0 0 0 0 0 0 0 0 0 0 0 0 0 0 0 0 0 0 0 0 0 0 0 0 0 0 0 0 0 0 0 0 0 0 0 0 0 0 0 0 0 0 0 0 0 0 0 0 0 0 0 0 0 0 0 0 0 0 0 0 0 0 0 0 0 0 0 0 0 0 0 0 0 0 0 

SCALARS geom_link_id_0 int 1
LOOKUP_TABLE default
0 0 0 0 0 0 0 0 0 0 0 0 0 0 0 0 0 0 0 0 0 0 0 0 0 0 0 0 0 0 0 0 0 0 0 0 0 0 0 0 0 0 0 0 0 0 0 0 0 0 0 0 0 0 0 0 0 0 0 0 0 0 0 0 0 0 0 0 0 0 0 0 0 0 0 0 0 0 0 0 0 0 0 0 0 0 0 0 0 0 0 0 0 0 0 0 0 0 0 0 0 0 0 0 0 0 0 0 0 0 0 0 0 0 0 0 0 0 0 0 0 0 0 0 0 0 0 0 0 0 0 0 0 0 0 0 0 0 0 0 0 0 0 0 0 0 0 0 0 0 0 0 0 0 0 0 0 0 0 0 0 0 0 0 0 0 0 0 0 0 0 0 0 0 0 0 0 0 0 0 0 0 0 0 0 0 0 0 0 0 0 0 0 0 0 0 0 0 0 0 0 0 0 0 0 0 0 0 0 0 0 0 0 0 0 0 0 0 0 0 0 0 0 0 0 0 0 

