# vtk DataFile Version 3.0
Generated by GMDS VTK Writer

ASCII
DATASET UNSTRUCTURED_GRID
POINTS 60 float
1 0 9
0 10 0
10 10 0
10 0 0
0 10 10
10 10 10
10 0 10
0 1 0
0 1 10
10 1 10
10 1 0
10 0 7
10 1 7
0 1 7
10 10 7
0 10 7
1 0 7
1 1 7
1 1 10
1 0 10
1 0 0
1 1 0
1 10 0
1 10 7
1 10 10
10 8 0
10 8 7
1 8 7
1 8 0
0 8 7
0 8 0
10 8 10
1 8 10
0 8 10
1 1 9
0 1 9
10 0 9
10 1 9
10 10 9
1 10 9
1 8 9
10 8 9
0 10 9
0 8 9
3 0 0
3 1 0
3 1 7
3 0 7
3 8 0
3 8 7
3 10 0
3 10 7
3 0 9
3 1 9
3 0 10
3 1 10
3 10 10
3 8 10
3 8 9
3 10 9

CELLS 22 198
8 22 23 15 1 28 27 29 30 
8 50 51 49 48 22 23 27 28 
8 2 14 26 25 50 51 49 48 
8 28 27 29 30 21 17 13 7 
8 48 49 46 45 28 27 17 21 
8 25 26 12 10 48 49 46 45 
8 44 45 46 47 20 21 17 16 
8 3 10 12 11 44 45 46 47 
8 4 24 32 33 42 39 40 43 
8 33 32 18 8 43 40 34 35 
8 43 40 34 35 29 27 17 13 
8 36 37 12 11 52 53 46 47 
8 52 53 46 47 0 34 17 16 
8 6 9 37 36 54 55 53 52 
8 54 55 53 52 19 18 34 0 
8 5 31 41 38 56 57 58 59 
8 56 57 58 59 24 32 40 39 
8 38 41 26 14 59 58 49 51 
8 9 31 41 37 55 57 58 53 
8 55 57 58 53 18 32 40 34 
8 37 41 26 12 53 58 49 46 
8 53 58 49 46 34 40 27 17 

CELL_TYPES 22
12 
12 
12 
12 
12 
12 
12 
12 
12 
12 
12 
12 
12 
12 
12 
12 
12 
12 
12 
12 
12 
12 
POINT_DATA 60
SCALARS GMDS_ID int 1
LOOKUP_TABLE default
0 1 2 3 4 5 6 7 8 9 10 11 12 13 14 15 16 17 18 19 20 21 22 23 24 25 26 27 28 29 30 31 32 33 34 35 36 37 38 39 40 41 42 43 44 45 46 47 48 49 50 51 52 53 54 55 56 57 58 59 
SCALARS geom_link_dim int 1
LOOKUP_TABLE default
2 1 1 1 1 1 1 1 1 2 2 2 3 2 2 1 2 2 1 1 1 1 2 2 2 2 3 2 3 1 2 2 3 2 2 2 2 3 2 2 2 3 1 1 2 3 3 3 3 1 2 1 3 4 2 3 2 3 1 1 
SCALARS geom_link_id int 1
LOOKUP_TABLE default
23 7 13 18 2 9 10 8 1 14 11 10 6 27 13 6 23 1 12 11 19 20 16 15 24 11 6 5 2 5 12 14 1 17 1 27 10 6 13 25 2 6 3 4 8 2 4 4 2 17 16 15 4 1 9 1 24 1 16 14 


CELL_DATA 22
SCALARS GMDS_ID int 1
LOOKUP_TABLE default
0 1 2 3 4 5 6 7 8 9 10 11 12 13 14 15 16 17 19 20 21 22 

SCALARS is_in int 1
LOOKUP_TABLE default
0 0 0 0 0 0 0 0 0 0 0 0 0 0 0 0 0 0 0 0 0 0 

SCALARS geom_link_dim int 1
LOOKUP_TABLE default
4 4 4 4 4 4 4 4 4 4 4 4 4 4 4 4 4 4 4 4 4 4 

SCALARS geom_link_id int 1
LOOKUP_TABLE default
1 1 1 1 1 1 1 1 1 1 1 1 1 1 1 1 1 1 1 1 1 1 

