# vtk DataFile Version 3.0
Generated by GMDS VTK Writer

ASCII
DATASET UNSTRUCTURED_GRID
POINTS 32 float
0 0 0
0 10 0
3 10 0
3 0 0
0 0 10
0 10 10
3 10 10
3 0 10
0 3 0
0 3 10
3 3 10
3 3 0
0 0 7
3 0 7
3 3 7
0 3 7
3 10 7
0 10 7
0 0 3
3 0 3
3 3 3
0 3 3
3 10 3
0 10 3
0 7 7
3 7 7
3 7 10
0 7 10
0 7 0
3 7 0
3 7 3
0 7 3

CELLS 8 72
8 24 25 26 27 15 14 10 9 
8 18 19 20 21 12 13 14 15 
8 0 3 11 8 18 19 20 21 
8 12 13 14 15 4 7 10 9 
8 17 16 6 5 24 25 26 27 
8 1 2 22 23 28 29 30 31 
8 28 29 30 31 8 11 20 21 
8 23 22 16 17 31 30 25 24 

CELL_TYPES 8
12 
12 
12 
12 
12 
12 
12 
12 
POINT_DATA 32
SCALARS GMDS_ID int 1
LOOKUP_TABLE default
0 1 2 3 4 5 6 7 8 9 10 11 12 13 14 15 16 17 18 19 20 21 22 23 24 25 26 27 28 29 30 31 
SCALARS geom_link_dim_0 int 1
LOOKUP_TABLE default
0 0 0 0 0 0 0 0 0 0 0 0 0 0 0 0 0 0 0 0 0 0 0 0 0 0 0 0 0 0 0 0 
SCALARS geom_link_id_0 int 1
LOOKUP_TABLE default
0 0 0 0 0 0 0 0 0 0 0 0 0 0 0 0 0 0 0 0 0 0 0 0 0 0 0 0 0 0 0 0 


CELL_DATA 8
SCALARS GMDS_ID int 1
LOOKUP_TABLE default
0 1 2 3 4 8 9 10 

SCALARS geom_link_dim_0 int 1
LOOKUP_TABLE default
0 0 0 0 0 0 0 0 

SCALARS geom_link_id_0 int 1
LOOKUP_TABLE default
0 0 0 0 0 0 0 0 

