# vtk DataFile Version 3.0
Generated by GMDS VTK Writer

ASCII
DATASET UNSTRUCTURED_GRID
POINTS 32 float
0 0 0
0 10 0
3 10 0
3 0 0
0 0 10
0 10 10
3 10 10
3 0 10
0 7 0
0 7 10
3 7 10
3 7 0
0 0 3
3 0 3
3 7 3
0 7 3
3 10 3
0 10 3
0 3 3
3 3 3
3 3 10
0 3 10
0 3 0
3 3 0
0 3 7
3 3 7
3 7 7
0 7 7
0 0 7
3 0 7
3 10 7
0 10 7

CELLS 9 81
8 21 20 10 9 24 25 26 27 
8 24 25 26 27 18 19 14 15 
8 8 11 2 1 15 14 16 17 
8 0 3 13 12 22 23 19 18 
8 22 23 19 18 8 11 14 15 
8 4 7 20 21 28 29 25 24 
8 28 29 25 24 12 13 19 18 
8 9 10 6 5 27 26 30 31 
8 27 26 30 31 15 14 16 17 

CELL_TYPES 9
12 
12 
12 
12 
12 
12 
12 
12 
12 
POINT_DATA 32
SCALARS GMDS_ID int 1
LOOKUP_TABLE default
0 1 2 3 4 5 6 7 8 9 10 11 12 13 14 15 16 17 18 19 20 21 22 23 24 25 26 27 28 29 30 31 
SCALARS geom_link_dim_0 int 1
LOOKUP_TABLE default
0 0 0 0 0 0 0 0 0 0 0 0 0 0 0 0 0 0 0 0 0 0 0 0 0 0 0 0 0 0 0 0 
SCALARS geom_link_id_0 int 1
LOOKUP_TABLE default
0 0 0 0 0 0 0 0 0 0 0 0 0 0 0 0 0 0 0 0 0 0 0 0 0 0 0 0 0 0 0 0 


CELL_DATA 9
SCALARS GMDS_ID int 1
LOOKUP_TABLE default
0 3 4 6 7 8 9 10 11 

SCALARS geom_link_dim_0 int 1
LOOKUP_TABLE default
0 0 0 0 0 0 0 0 0 

SCALARS geom_link_id_0 int 1
LOOKUP_TABLE default
0 0 0 0 0 0 0 0 0 

