# vtk DataFile Version 3.0
Generated by GMDS VTK Writer

ASCII
DATASET UNSTRUCTURED_GRID
POINTS 8 float
0 0 0
0 10 0
3 10 0
3 0 0
0 0 10
0 10 10
3 10 10
3 0 10

CELLS 1 9
8 0 1 2 3 4 5 6 7 

CELL_TYPES 1
12 
POINT_DATA 8
SCALARS GMDS_ID int 1
LOOKUP_TABLE default
0 1 2 3 4 5 6 7 
SCALARS geom_link_id_0 int 1
LOOKUP_TABLE default
4 2 9 11 3 1 10 15 


CELL_DATA 1
SCALARS GMDS_ID int 1
LOOKUP_TABLE default
0 

SCALARS geom_link_id_0 int 1
LOOKUP_TABLE default
0 

