# vtk DataFile Version 3.0
Generated by GMDS VTK Writer

ASCII
DATASET UNSTRUCTURED_GRID
POINTS 18 float
0 0 0
0 10 0
3 10 0
3 0 0
0 0 10
0 10 10
3 10 10
3 0 10
0 7 0
0 7 10
3 7 10
3 7 0
0 0 3
3 0 3
3 7 3
0 7 3
3 10 3
0 10 3

CELLS 4 36
8 0 3 11 8 12 13 14 15 
8 12 13 14 15 4 7 10 9 
8 8 11 2 1 15 14 16 17 
8 15 14 16 17 9 10 6 5 

CELL_TYPES 4
12 
12 
12 
12 
POINT_DATA 18
SCALARS GMDS_ID int 1
LOOKUP_TABLE default
0 1 2 3 4 5 6 7 8 9 10 11 12 13 14 15 16 17 
SCALARS geom_link_dim_0 int 1
LOOKUP_TABLE default
0 0 0 0 0 0 0 0 0 0 0 0 0 0 0 0 0 0 
SCALARS geom_link_id_0 int 1
LOOKUP_TABLE default
0 0 0 0 0 0 0 0 0 0 0 0 0 0 0 0 0 0 


CELL_DATA 4
SCALARS GMDS_ID int 1
LOOKUP_TABLE default
0 3 4 5 

SCALARS geom_link_dim_0 int 1
LOOKUP_TABLE default
0 0 0 0 

SCALARS geom_link_id_0 int 1
LOOKUP_TABLE default
0 0 0 0 

