# vtk DataFile Version 3.0
Generated by GMDS VTK Writer

ASCII
DATASET UNSTRUCTURED_GRID
POINTS 28 float
0 0 0
0 10 0
3 10 0
3 0 0
0 10 10
3 10 10
0 7 0
0 7 10
3 7 10
3 7 0
0 0 7
3 0 7
3 7 7
0 7 7
3 10 7
0 10 7
0 0 3
3 0 3
3 7 3
0 7 3
3 10 3
0 10 3
0 3 7
3 3 7
0 3 3
3 3 3
0 3 0
3 3 0

CELLS 7 63
8 13 12 14 15 7 8 5 4 
8 6 9 2 1 19 18 20 21 
8 19 18 20 21 13 12 14 15 
8 16 17 11 10 24 25 23 22 
8 24 25 23 22 19 18 12 13 
8 0 3 17 16 26 27 25 24 
8 26 27 25 24 6 9 18 19 

CELL_TYPES 7
12 
12 
12 
12 
12 
12 
12 
POINT_DATA 28
SCALARS GMDS_ID int 1
LOOKUP_TABLE default
0 1 2 3 5 6 8 9 10 11 12 13 14 15 16 17 18 19 20 21 22 23 24 25 28 29 30 31 
SCALARS geom_link_dim_0 int 1
LOOKUP_TABLE default
0 0 0 0 0 0 0 0 0 0 0 0 0 0 0 0 0 0 0 0 0 0 0 0 0 0 0 0 
SCALARS geom_link_id_0 int 1
LOOKUP_TABLE default
0 0 0 0 0 0 0 0 0 0 0 0 0 0 0 0 0 0 0 0 0 0 0 0 0 0 0 0 


CELL_DATA 7
SCALARS GMDS_ID int 1
LOOKUP_TABLE default
5 6 7 8 9 10 11 

SCALARS geom_link_dim_0 int 1
LOOKUP_TABLE default
0 0 0 0 0 0 0 

SCALARS geom_link_id_0 int 1
LOOKUP_TABLE default
0 0 0 0 0 0 0 

