# vtk DataFile Version 3.0
Generated by GMDS VTK Writer

ASCII
DATASET UNSTRUCTURED_GRID
POINTS 32 float
0 0 0
0 10 0
3 10 0
3 0 0
0 0 10
0 10 10
3 10 10
3 0 10
0 3 0
0 3 10
3 3 10
3 3 0
0 0 3
3 0 3
3 3 3
0 3 3
3 10 3
0 10 3
0 0 7
3 0 7
3 3 7
0 3 7
3 10 7
0 10 7
0 7 0
3 7 0
3 7 3
0 7 3
0 7 7
3 7 7
0 7 10
3 7 10

CELLS 7 63
8 0 3 11 8 12 13 14 15 
8 18 19 20 21 4 7 10 9 
8 24 25 26 27 8 11 14 15 
8 1 2 16 17 24 25 26 27 
8 16 17 23 22 26 27 28 29 
8 22 23 5 6 29 28 30 31 
8 29 28 30 31 20 21 9 10 

CELL_TYPES 7
12 
12 
12 
12 
12 
12 
12 
POINT_DATA 32
SCALARS GMDS_ID int 1
LOOKUP_TABLE default
0 1 2 3 4 5 6 7 8 9 10 11 12 13 14 15 16 17 18 19 20 21 22 23 24 25 26 27 28 29 30 31 
SCALARS geom_link_dim int 1
LOOKUP_TABLE default
1 1 1 1 1 1 1 1 2 2 2 2 2 2 1 1 2 2 2 2 1 1 2 2 2 2 1 1 1 1 2 2 
SCALARS geom_link_id int 1
LOOKUP_TABLE default
4 2 9 11 3 1 10 15 11 9 14 18 19 20 13 5 16 13 19 20 16 7 16 13 11 18 12 6 8 14 9 14 


CELL_DATA 7
SCALARS GMDS_ID int 1
LOOKUP_TABLE default
0 1 3 4 5 6 7 

SCALARS is_in int 1
LOOKUP_TABLE default
0 0 0 0 0 0 0 

SCALARS geom_link_dim int 1
LOOKUP_TABLE default
0 0 0 0 0 0 0 

SCALARS geom_link_id int 1
LOOKUP_TABLE default
0 0 0 0 0 0 0 

