# vtk DataFile Version 3.0
Generated by GMDS VTK Writer

ASCII
DATASET UNSTRUCTURED_GRID
POINTS 32 float
0 0 0
0 10 0
3 10 0
3 0 0
0 0 10
0 10 10
3 10 10
3 0 10
0 7 0
0 7 10
3 7 10
3 7 0
0 0 7
3 0 7
3 7 7
0 7 7
3 10 7
0 10 7
0 0 3
3 0 3
3 7 3
0 7 3
3 10 3
0 10 3
0 3 7
3 3 7
3 3 10
0 3 10
0 3 3
3 3 3
0 3 0
3 3 0

CELLS 64 192
2 13 7
2 1 2
2 7 26
2 3 0
2 12 4
2 5 6
2 26 10
2 7 4
2 20 14
2 0 18
2 18 12
2 11 20
2 8 1
2 9 5
2 10 6
2 11 2
2 19 13
2 9 10
2 3 19
2 8 11
2 13 25
2 14 10
2 25 14
2 15 9
2 12 13
2 15 14
2 24 15
2 16 6
2 12 24
2 17 5
2 16 14
2 17 16
2 17 15
2 8 21
2 21 15
2 18 19
2 21 20
2 2 22
2 22 16
2 1 23
2 23 17
2 22 20
2 23 22
2 23 21
2 4 27
2 27 9
2 24 25
2 26 25
2 27 26
2 27 24
2 18 28
2 28 21
2 19 29
2 29 20
2 28 29
2 25 29
2 24 28
2 0 30
2 30 8
2 3 31
2 31 11
2 30 31
2 31 29
2 30 28

CELL_TYPES 64
3 
3 
3 
3 
3 
3 
3 
3 
3 
3 
3 
3 
3 
3 
3 
3 
3 
3 
3 
3 
3 
3 
3 
3 
3 
3 
3 
3 
3 
3 
3 
3 
3 
3 
3 
3 
3 
3 
3 
3 
3 
3 
3 
3 
3 
3 
3 
3 
3 
3 
3 
3 
3 
3 
3 
3 
3 
3 
3 
3 
3 
3 
3 
3 
POINT_DATA 32
SCALARS GMDS_ID int 1
LOOKUP_TABLE default
0 1 2 3 4 5 6 7 8 9 10 11 12 13 14 15 16 17 18 19 20 21 22 23 24 25 26 27 28 29 30 31 
SCALARS geom_link_dim_0 int 1
LOOKUP_TABLE default
0 0 0 0 0 0 0 0 0 0 0 0 0 0 0 0 0 0 0 0 0 0 0 0 0 0 0 0 0 0 0 0 
SCALARS geom_link_id_0 int 1
LOOKUP_TABLE default
0 0 0 0 0 0 0 0 0 0 0 0 0 0 0 0 0 0 0 0 0 0 0 0 0 0 0 0 0 0 0 0 


CELL_DATA 64
SCALARS GMDS_ID int 1
LOOKUP_TABLE default
0 1 2 3 4 5 6 7 8 9 10 11 13 15 17 19 20 21 22 23 24 25 26 27 28 30 32 33 34 35 36 37 38 39 40 41 43 45 46 47 48 49 50 51 52 53 54 55 56 57 58 59 60 61 62 63 64 65 66 67 68 69 70 71 

SCALARS geom_link_dim_0 int 1
LOOKUP_TABLE default
0 0 0 0 0 0 0 0 0 0 0 0 0 0 0 0 0 0 0 0 0 0 0 0 0 0 0 0 0 0 0 0 0 0 0 0 0 0 0 0 0 0 0 0 0 0 0 0 0 0 0 0 0 0 0 0 0 0 0 0 0 0 0 0 

SCALARS geom_link_id_0 int 1
LOOKUP_TABLE default
0 0 0 0 0 0 0 0 0 0 0 0 0 0 0 0 0 0 0 0 0 0 0 0 0 0 0 0 0 0 0 0 0 0 0 0 0 0 0 0 0 0 0 0 0 0 0 0 0 0 0 0 0 0 0 0 0 0 0 0 0 0 0 0 

