# vtk DataFile Version 3.0
Generated by GMDS VTK Writer

ASCII
DATASET UNSTRUCTURED_GRID
POINTS 24 float
0 0 0
0 10 0
3 10 0
3 0 0
0 0 10
0 10 10
3 10 10
3 0 10
0 3 0
0 3 10
3 3 10
3 3 0
0 0 3
3 0 3
3 3 3
0 3 3
3 10 3
0 10 3
0 7 0
3 7 0
3 7 3
0 7 3
3 7 10
0 7 10

CELLS 46 138
2 13 7
2 1 2
2 3 13
2 3 0
2 12 4
2 5 6
2 0 12
2 7 4
2 16 20
2 18 8
2 1 18
2 2 19
2 0 8
2 4 9
2 7 10
2 3 11
2 20 14
2 9 10
2 19 11
2 8 11
2 11 14
2 14 10
2 8 15
2 15 9
2 12 13
2 13 14
2 15 14
2 12 15
2 2 16
2 16 6
2 1 17
2 17 5
2 17 16
2 17 21
2 21 15
2 18 19
2 19 20
2 20 21
2 18 21
2 6 22
2 22 10
2 5 23
2 23 9
2 22 20
2 23 22
2 23 21

CELL_TYPES 46
3 
3 
3 
3 
3 
3 
3 
3 
3 
3 
3 
3 
3 
3 
3 
3 
3 
3 
3 
3 
3 
3 
3 
3 
3 
3 
3 
3 
3 
3 
3 
3 
3 
3 
3 
3 
3 
3 
3 
3 
3 
3 
3 
3 
3 
3 
POINT_DATA 24
SCALARS GMDS_ID int 1
LOOKUP_TABLE default
0 1 2 3 4 5 6 7 8 9 10 11 12 13 14 15 16 17 18 19 20 21 22 23 
SCALARS geom_link_dim int 1
LOOKUP_TABLE default
1 1 1 1 1 1 1 1 2 2 2 2 2 2 1 1 2 2 2 2 1 1 2 2 
SCALARS geom_link_id int 1
LOOKUP_TABLE default
4 2 9 11 3 1 10 15 11 9 14 18 19 20 13 5 16 13 11 18 12 6 14 9 


CELL_DATA 46
SCALARS GMDS_ID int 1
LOOKUP_TABLE default
0 1 2 3 4 5 6 7 8 9 10 11 12 14 16 18 20 21 22 23 24 25 26 27 28 29 30 31 32 33 34 35 37 39 40 41 42 43 44 45 46 47 48 49 50 51 

SCALARS geom_link_dim int 1
LOOKUP_TABLE default
2 2 2 2 2 2 2 2 0 2 2 2 2 2 2 2 2 0 2 0 0 0 0 0 0 0 0 0 2 2 2 2 0 0 2 0 0 0 0 2 2 2 2 0 0 0 

SCALARS geom_link_id int 1
LOOKUP_TABLE default
20 10 20 5 19 7 19 8 -1 11 11 18 11 9 14 18 22 0 18 0 0 0 0 0 0 0 0 0 16 16 13 13 0 -1 17 -1 -1 -1 -1 14 14 9 9 -1 -1 -1 

