# vtk DataFile Version 3.0
Generated by GMDS VTK Writer

ASCII
DATASET UNSTRUCTURED_GRID
POINTS 28 float
0 0 0
0 10 0
3 10 0
3 0 0
0 10 10
3 10 10
0 7 0
0 7 10
3 7 10
3 7 0
0 0 7
3 0 7
3 7 7
0 7 7
3 10 7
0 10 7
0 0 3
3 0 3
3 7 3
0 7 3
3 10 3
0 10 3
0 3 7
3 3 7
0 3 3
3 3 3
0 3 0
3 3 0

CELLS 54 162
2 1 2
2 3 0
2 4 5
2 18 12
2 0 16
2 16 10
2 9 18
2 6 1
2 7 4
2 8 5
2 9 2
2 17 11
2 7 8
2 3 17
2 6 9
2 11 23
2 12 8
2 23 12
2 13 7
2 10 11
2 13 12
2 22 13
2 14 5
2 10 22
2 15 4
2 14 12
2 15 14
2 15 13
2 6 19
2 19 13
2 16 17
2 19 18
2 2 20
2 20 14
2 1 21
2 21 15
2 20 18
2 21 20
2 21 19
2 22 23
2 16 24
2 24 19
2 17 25
2 25 18
2 24 25
2 23 25
2 22 24
2 0 26
2 26 6
2 3 27
2 27 9
2 26 27
2 27 25
2 26 24

CELL_TYPES 54
3 
3 
3 
3 
3 
3 
3 
3 
3 
3 
3 
3 
3 
3 
3 
3 
3 
3 
3 
3 
3 
3 
3 
3 
3 
3 
3 
3 
3 
3 
3 
3 
3 
3 
3 
3 
3 
3 
3 
3 
3 
3 
3 
3 
3 
3 
3 
3 
3 
3 
3 
3 
3 
3 
POINT_DATA 28
SCALARS GMDS_ID int 1
LOOKUP_TABLE default
0 1 2 3 5 6 8 9 10 11 12 13 14 15 16 17 18 19 20 21 22 23 24 25 28 29 30 31 
SCALARS geom_link_dim_0 int 1
LOOKUP_TABLE default
0 0 0 0 0 0 0 0 0 0 0 0 0 0 0 0 0 0 0 0 0 0 0 0 0 0 0 0 
SCALARS geom_link_id_0 int 1
LOOKUP_TABLE default
0 0 0 0 0 0 0 0 0 0 0 0 0 0 0 0 0 0 0 0 0 0 0 0 0 0 0 0 


CELL_DATA 54
SCALARS GMDS_ID int 1
LOOKUP_TABLE default
1 3 5 8 9 10 11 13 15 17 19 20 21 22 23 24 25 26 27 28 30 32 33 34 35 36 37 38 39 40 41 43 45 46 47 48 49 50 51 54 58 59 60 61 62 63 64 65 66 67 68 69 70 71 

SCALARS geom_link_dim_0 int 1
LOOKUP_TABLE default
0 0 0 0 0 0 0 0 0 0 0 0 0 0 0 0 0 0 0 0 0 0 0 0 0 0 0 0 0 0 0 0 0 0 0 0 0 0 0 0 0 0 0 0 0 0 0 0 0 0 0 0 0 0 

SCALARS geom_link_id_0 int 1
LOOKUP_TABLE default
0 0 0 0 0 0 0 0 0 0 0 0 0 0 0 0 0 0 0 0 0 0 0 0 0 0 0 0 0 0 0 0 0 0 0 0 0 0 0 0 0 0 0 0 0 0 0 0 0 0 0 0 0 0 

