# vtk DataFile Version 3.0
Generated by GMDS VTK Writer

ASCII
DATASET UNSTRUCTURED_GRID
POINTS 32 float
0 0 0
0 10 0
3 10 0
3 0 0
0 0 10
0 10 10
3 10 10
3 0 10
0 3 0
0 3 10
3 3 10
3 3 0
0 0 3
3 0 3
3 3 3
0 3 3
3 10 3
0 10 3
0 0 7
3 0 7
3 3 7
0 3 7
3 10 7
0 10 7
0 7 0
3 7 0
3 7 3
0 7 3
0 7 7
3 7 7
0 7 10
3 7 10

CELLS 60 180
2 2 25
2 1 2
2 3 13
2 3 0
2 16 26
2 5 6
2 0 12
2 7 4
2 18 4
2 0 8
2 4 9
2 7 10
2 3 11
2 20 10
2 9 10
2 19 7
2 8 11
2 11 14
2 25 11
2 8 15
2 26 14
2 12 13
2 13 14
2 15 14
2 12 15
2 2 16
2 1 24
2 1 17
2 24 8
2 17 16
2 21 9
2 18 19
2 19 20
2 20 21
2 18 21
2 16 22
2 22 6
2 17 23
2 23 5
2 22 23
2 17 27
2 27 15
2 24 25
2 25 26
2 26 27
2 24 27
2 23 28
2 28 21
2 22 29
2 29 20
2 27 28
2 29 28
2 26 29
2 5 30
2 30 9
2 6 31
2 31 10
2 30 28
2 30 31
2 31 29

CELL_TYPES 60
3 
3 
3 
3 
3 
3 
3 
3 
3 
3 
3 
3 
3 
3 
3 
3 
3 
3 
3 
3 
3 
3 
3 
3 
3 
3 
3 
3 
3 
3 
3 
3 
3 
3 
3 
3 
3 
3 
3 
3 
3 
3 
3 
3 
3 
3 
3 
3 
3 
3 
3 
3 
3 
3 
3 
3 
3 
3 
3 
3 
POINT_DATA 32
SCALARS GMDS_ID int 1
LOOKUP_TABLE default
0 1 2 3 4 5 6 7 8 9 10 11 12 13 14 15 16 17 18 19 20 21 22 23 24 25 26 27 28 29 30 31 
SCALARS geom_link_dim int 1
LOOKUP_TABLE default
1 1 1 1 1 1 1 1 2 2 2 2 2 2 1 1 2 2 2 2 1 1 2 2 2 2 1 1 1 1 2 2 
SCALARS geom_link_id int 1
LOOKUP_TABLE default
4 2 9 11 3 1 10 15 11 9 14 18 19 20 13 5 16 13 19 20 16 7 16 13 11 18 12 6 8 14 9 14 


CELL_DATA 60
SCALARS GMDS_ID int 1
LOOKUP_TABLE default
0 1 2 3 4 5 6 7 9 12 13 14 15 16 17 18 19 20 21 22 23 24 25 26 27 28 29 30 31 32 34 35 36 37 38 39 40 41 42 43 44 45 46 47 48 49 50 51 52 53 54 55 56 57 58 59 60 61 62 63 

SCALARS geom_link_dim int 1
LOOKUP_TABLE default
0 2 0 2 0 2 0 2 0 0 2 0 0 0 0 0 0 0 0 0 2 0 0 2 0 0 0 0 0 0 0 0 0 2 0 0 0 0 0 0 0 2 0 0 2 0 0 2 0 2 2 2 2 2 2 0 0 0 0 0 

SCALARS geom_link_id int 1
LOOKUP_TABLE default
0 10 0 5 0 7 0 8 0 0 9 0 0 0 0 0 0 0 0 0 22 0 0 1 0 0 0 0 0 0 0 0 0 4 0 0 0 0 0 0 0 17 0 0 2 0 0 12 0 24 23 3 15 9 9 0 0 0 0 0 

