# vtk DataFile Version 3.0
Generated by GMDS VTK Writer

ASCII
DATASET UNSTRUCTURED_GRID
POINTS 32 float
0 0 0
0 10 0
3 10 0
3 0 0
0 0 10
0 10 10
3 10 10
3 0 10
0 3 0
0 3 10
3 3 10
3 3 0
0 0 7
3 0 7
3 3 7
0 3 7
3 10 7
0 10 7
0 0 3
3 0 3
3 3 3
0 3 3
3 10 3
0 10 3
0 7 7
3 7 7
3 7 10
0 7 10
0 7 0
3 7 0
3 7 3
0 7 3

CELLS 64 192
2 13 7
2 1 2
2 16 25
2 3 0
2 12 4
2 5 6
2 6 26
2 7 4
2 11 20
2 18 12
2 0 18
2 3 19
2 0 8
2 4 9
2 7 10
2 3 11
2 20 14
2 9 10
2 19 13
2 8 11
2 25 14
2 14 10
2 26 10
2 15 9
2 12 13
2 13 14
2 15 14
2 12 15
2 17 24
2 16 6
2 24 15
2 17 5
2 17 16
2 8 21
2 21 15
2 18 19
2 19 20
2 21 20
2 18 21
2 2 22
2 22 16
2 1 23
2 23 17
2 23 22
2 5 27
2 27 9
2 25 24
2 26 25
2 27 26
2 27 24
2 1 28
2 28 8
2 2 29
2 29 11
2 22 30
2 30 20
2 23 31
2 31 21
2 28 29
2 29 30
2 30 31
2 28 31
2 25 30
2 24 31

CELL_TYPES 64
3 
3 
3 
3 
3 
3 
3 
3 
3 
3 
3 
3 
3 
3 
3 
3 
3 
3 
3 
3 
3 
3 
3 
3 
3 
3 
3 
3 
3 
3 
3 
3 
3 
3 
3 
3 
3 
3 
3 
3 
3 
3 
3 
3 
3 
3 
3 
3 
3 
3 
3 
3 
3 
3 
3 
3 
3 
3 
3 
3 
3 
3 
3 
3 
POINT_DATA 32
SCALARS GMDS_ID int 1
LOOKUP_TABLE default
0 1 2 3 4 5 6 7 8 9 10 11 12 13 14 15 16 17 18 19 20 21 22 23 24 25 26 27 28 29 30 31 
SCALARS geom_link_dim_0 int 1
LOOKUP_TABLE default
0 0 0 0 0 0 0 0 0 0 0 0 0 0 0 0 0 0 0 0 0 0 0 0 0 0 0 0 0 0 0 0 
SCALARS geom_link_id_0 int 1
LOOKUP_TABLE default
0 0 0 0 0 0 0 0 0 0 0 0 0 0 0 0 0 0 0 0 0 0 0 0 0 0 0 0 0 0 0 0 


CELL_DATA 64
SCALARS GMDS_ID int 1
LOOKUP_TABLE default
0 1 2 3 4 5 6 7 8 9 10 11 12 14 16 18 20 21 22 23 24 25 26 27 28 29 30 31 32 33 34 35 37 39 40 41 42 43 44 45 46 47 48 50 52 53 54 55 56 57 58 59 60 61 62 63 64 65 66 67 68 69 70 71 

SCALARS geom_link_dim_0 int 1
LOOKUP_TABLE default
0 0 0 0 0 0 0 0 0 0 0 0 0 0 0 0 0 0 0 0 0 0 0 0 0 0 0 0 0 0 0 0 0 0 0 0 0 0 0 0 0 0 0 0 0 0 0 0 0 0 0 0 0 0 0 0 0 0 0 0 0 0 0 0 

SCALARS geom_link_id_0 int 1
LOOKUP_TABLE default
0 0 0 0 0 0 0 0 0 0 0 0 0 0 0 0 0 0 0 0 0 0 0 0 0 0 0 0 0 0 0 0 0 0 0 0 0 0 0 0 0 0 0 0 0 0 0 0 0 0 0 0 0 0 0 0 0 0 0 0 0 0 0 0 

