# vtk DataFile Version 3.0
Generated by GMDS VTK Writer

ASCII
DATASET UNSTRUCTURED_GRID
POINTS 32 float
0 0 0
0 10 0
3 10 0
3 0 0
0 0 10
0 10 10
3 10 10
3 0 10
0 3 0
0 3 10
3 3 10
3 3 0
0 0 3
3 0 3
3 3 3
0 3 3
3 10 3
0 10 3
0 7 0
3 7 0
3 7 3
0 7 3
3 7 10
0 7 10
3 7 7
0 7 7
0 3 7
3 3 7
3 10 7
0 10 7
0 0 7
3 0 7

CELLS 64 192
2 1 2
2 3 13
2 3 0
2 5 6
2 0 12
2 7 4
2 16 20
2 18 8
2 1 18
2 2 19
2 0 8
2 15 26
2 4 9
2 24 22
2 7 10
2 20 24
2 3 11
2 21 25
2 20 14
2 9 10
2 19 11
2 8 11
2 11 14
2 8 15
2 12 13
2 13 14
2 15 14
2 12 15
2 2 16
2 1 17
2 25 23
2 17 16
2 26 9
2 17 21
2 21 15
2 18 19
2 19 20
2 20 21
2 18 21
2 6 22
2 22 10
2 5 23
2 23 9
2 23 22
2 14 27
2 27 10
2 24 25
2 26 25
2 27 26
2 27 24
2 16 28
2 28 6
2 17 29
2 29 5
2 28 29
2 29 25
2 28 24
2 12 30
2 30 4
2 13 31
2 31 7
2 30 31
2 31 27
2 30 26

CELL_TYPES 64
3 
3 
3 
3 
3 
3 
3 
3 
3 
3 
3 
3 
3 
3 
3 
3 
3 
3 
3 
3 
3 
3 
3 
3 
3 
3 
3 
3 
3 
3 
3 
3 
3 
3 
3 
3 
3 
3 
3 
3 
3 
3 
3 
3 
3 
3 
3 
3 
3 
3 
3 
3 
3 
3 
3 
3 
3 
3 
3 
3 
3 
3 
3 
3 
POINT_DATA 32
SCALARS GMDS_ID int 1
LOOKUP_TABLE default
0 1 2 3 4 5 6 7 8 9 10 11 12 13 14 15 16 17 18 19 20 21 22 23 24 25 26 27 28 29 30 31 
SCALARS geom_link_dim int 1
LOOKUP_TABLE default
1 1 1 1 1 1 1 1 2 2 2 2 2 2 1 1 2 2 2 2 1 1 2 2 1 1 1 1 2 2 2 2 
SCALARS geom_link_id int 1
LOOKUP_TABLE default
4 2 9 11 3 1 10 15 11 9 14 18 19 20 13 5 16 13 11 18 12 6 14 9 14 8 7 16 16 13 19 20 


CELL_DATA 64
SCALARS GMDS_ID int 1
LOOKUP_TABLE default
1 2 3 5 6 7 8 9 10 11 12 13 14 15 16 17 18 19 20 21 22 23 24 26 28 29 30 31 32 34 36 37 38 39 40 41 42 43 44 45 46 47 48 50 52 53 54 55 56 57 58 59 60 61 62 63 64 65 66 67 68 69 70 71 

SCALARS geom_link_dim int 1
LOOKUP_TABLE default
2 2 2 2 2 2 3 2 2 2 2 2 2 3 2 2 2 2 2 3 2 3 3 3 3 3 2 3 2 2 3 3 3 3 2 3 3 2 3 2 2 2 2 3 2 3 2 2 2 2 2 2 2 2 3 3 3 2 2 2 2 3 3 3 

SCALARS geom_link_id int 1
LOOKUP_TABLE default
10 20 5 7 19 8 1 11 11 18 11 21 9 1 14 15 18 23 22 10 18 6 1 2 7 1 1 2 16 13 2 4 2 2 17 6 1 2 2 14 14 9 9 10 6 1 3 12 4 24 16 16 13 13 4 2 1 19 19 20 20 7 1 2 

