# vtk DataFile Version 3.0
Generated by GMDS VTK Writer

ASCII
DATASET UNSTRUCTURED_GRID
POINTS 32 float
0 0 0
0 10 0
3 10 0
3 0 0
0 0 10
0 10 10
3 10 10
3 0 10
0 7 0
0 7 10
3 7 10
3 7 0
0 0 3
3 0 3
3 7 3
0 7 3
3 10 3
0 10 3
0 3 3
3 3 3
3 3 10
0 3 10
0 3 0
3 3 0
0 3 7
3 3 7
3 7 7
0 7 7
0 0 7
3 0 7
3 10 7
0 10 7

CELLS 64 192
2 1 2
2 3 13
2 3 0
2 5 6
2 0 12
2 7 4
2 20 10
2 12 18
2 18 15
2 7 20
2 10 26
2 8 1
2 24 18
2 9 5
2 21 24
2 10 6
2 20 25
2 11 2
2 19 14
2 9 10
2 13 19
2 8 11
2 11 14
2 8 15
2 12 13
2 25 19
2 15 14
2 26 14
2 2 16
2 1 17
2 16 14
2 17 16
2 17 15
2 4 21
2 21 9
2 18 19
2 21 20
2 0 22
2 22 8
2 3 23
2 23 11
2 22 23
2 23 19
2 22 18
2 9 27
2 27 15
2 25 24
2 26 25
2 27 26
2 27 24
2 4 28
2 28 12
2 7 29
2 29 13
2 28 29
2 29 25
2 28 24
2 6 30
2 30 16
2 5 31
2 31 17
2 30 26
2 31 30
2 31 27

CELL_TYPES 64
3 
3 
3 
3 
3 
3 
3 
3 
3 
3 
3 
3 
3 
3 
3 
3 
3 
3 
3 
3 
3 
3 
3 
3 
3 
3 
3 
3 
3 
3 
3 
3 
3 
3 
3 
3 
3 
3 
3 
3 
3 
3 
3 
3 
3 
3 
3 
3 
3 
3 
3 
3 
3 
3 
3 
3 
3 
3 
3 
3 
3 
3 
3 
3 
POINT_DATA 32
SCALARS GMDS_ID int 1
LOOKUP_TABLE default
0 1 2 3 4 5 6 7 8 9 10 11 12 13 14 15 16 17 18 19 20 21 22 23 24 25 26 27 28 29 30 31 
SCALARS geom_link_dim_0 int 1
LOOKUP_TABLE default
0 0 0 0 0 0 0 0 0 0 0 0 0 0 0 0 0 0 0 0 0 0 0 0 0 0 0 0 0 0 0 0 
SCALARS geom_link_id_0 int 1
LOOKUP_TABLE default
0 0 0 0 0 0 0 0 0 0 0 0 0 0 0 0 0 0 0 0 0 0 0 0 0 0 0 0 0 0 0 0 


CELL_DATA 64
SCALARS GMDS_ID int 1
LOOKUP_TABLE default
1 2 3 5 6 7 8 9 10 11 12 13 14 15 16 17 18 19 20 21 22 23 24 26 28 29 30 31 32 34 36 37 38 39 40 41 43 45 46 47 48 49 50 51 52 53 54 55 56 57 58 59 60 61 62 63 64 65 66 67 68 69 70 71 

SCALARS geom_link_dim_0 int 1
LOOKUP_TABLE default
0 0 0 0 0 0 0 0 0 0 0 0 0 0 0 0 0 0 0 0 0 0 0 0 0 0 0 0 0 0 0 0 0 0 0 0 0 0 0 0 0 0 0 0 0 0 0 0 0 0 0 0 0 0 0 0 0 0 0 0 0 0 0 0 

SCALARS geom_link_id_0 int 1
LOOKUP_TABLE default
0 0 0 0 0 0 0 0 0 0 0 0 0 0 0 0 0 0 0 0 0 0 0 0 0 0 0 0 0 0 0 0 0 0 0 0 0 0 0 0 0 0 0 0 0 0 0 0 0 0 0 0 0 0 0 0 0 0 0 0 0 0 0 0 

