# vtk DataFile Version 3.0
Generated by GMDS VTK Writer

ASCII
DATASET UNSTRUCTURED_GRID
POINTS 32 float
0 0 0
0 10 0
3 10 0
3 0 0
0 0 10
0 10 10
3 10 10
3 0 10
0 7 0
0 7 10
3 7 10
3 7 0
0 0 7
3 0 7
3 7 7
0 7 7
3 10 7
0 10 7
0 0 3
3 0 3
3 7 3
0 7 3
3 10 3
0 10 3
0 3 7
3 3 7
3 3 10
0 3 10
0 3 3
3 3 3
0 3 0
3 3 0

CELLS 39 195
4 4 12 24 27 
4 12 13 7 4 
4 21 20 14 15 
4 8 11 20 21 
4 9 10 6 5 
4 18 19 13 12 
4 8 11 2 1 
4 0 3 19 18 
4 4 7 26 27 
4 15 14 10 9 
4 7 13 25 26 
4 16 14 10 6 
4 24 25 14 15 
4 17 16 6 5 
4 12 13 25 24 
4 17 15 9 5 
4 15 14 16 17 
4 2 11 20 22 
4 22 20 14 16 
4 1 2 22 23 
4 23 22 16 17 
4 1 8 21 23 
4 23 21 15 17 
4 21 20 22 23 
4 24 25 26 27 
4 18 19 29 28 
4 28 29 20 21 
4 13 19 29 25 
4 25 29 20 14 
4 12 18 28 24 
4 24 28 21 15 
4 28 29 25 24 
4 0 3 31 30 
4 30 31 11 8 
4 3 19 29 31 
4 31 29 20 11 
4 0 18 28 30 
4 30 28 21 8 
4 30 31 29 28 

CELL_TYPES 39
9 
9 
9 
9 
9 
9 
9 
9 
9 
9 
9 
9 
9 
9 
9 
9 
9 
9 
9 
9 
9 
9 
9 
9 
9 
9 
9 
9 
9 
9 
9 
9 
9 
9 
9 
9 
9 
9 
9 
POINT_DATA 32
SCALARS GMDS_ID int 1
LOOKUP_TABLE default
0 1 2 3 4 5 6 7 8 9 10 11 12 13 14 15 16 17 18 19 20 21 22 23 24 25 26 27 28 29 30 31 
SCALARS geom_link_dim_0 int 1
LOOKUP_TABLE default
0 0 0 0 0 0 0 0 0 0 0 0 0 0 0 0 0 0 0 0 0 0 0 0 0 0 0 0 0 0 0 0 
SCALARS geom_link_id_0 int 1
LOOKUP_TABLE default
0 0 0 0 0 0 0 0 0 0 0 0 0 0 0 0 0 0 0 0 0 0 0 0 0 0 0 0 0 0 0 0 


CELL_DATA 39
SCALARS GMDS_ID int 1
LOOKUP_TABLE default
1 3 4 6 9 11 13 14 15 16 20 21 22 23 24 25 26 29 30 31 32 33 34 35 37 38 39 40 41 42 43 44 45 46 47 48 49 50 51 

SCALARS geom_link_dim_0 int 1
LOOKUP_TABLE default
0 0 0 0 0 0 0 0 0 0 0 0 0 0 0 0 0 0 0 0 0 0 0 0 0 0 0 0 0 0 0 0 0 0 0 0 0 0 0 

SCALARS geom_link_id_0 int 1
LOOKUP_TABLE default
0 0 0 0 0 0 0 0 0 0 0 0 0 0 0 0 0 0 0 0 0 0 0 0 0 0 0 0 0 0 0 0 0 0 0 0 0 0 0 

