# vtk DataFile Version 3.0
Generated by GMDS VTK Writer

ASCII
DATASET UNSTRUCTURED_GRID
POINTS 28 float
0 0 0
0 10 0
3 10 0
3 0 0
0 10 10
3 10 10
0 7 0
0 7 10
3 7 10
3 7 0
0 0 7
3 0 7
3 7 7
0 7 7
3 10 7
0 10 7
0 0 3
3 0 3
3 7 3
0 7 3
3 10 3
0 10 3
0 3 7
3 3 7
0 3 3
3 3 3
0 3 0
3 3 0

CELLS 34 170
4 19 18 12 13 
4 6 9 18 19 
4 7 8 5 4 
4 16 17 11 10 
4 6 9 2 1 
4 0 3 17 16 
4 13 12 8 7 
4 14 12 8 5 
4 22 23 12 13 
4 15 14 5 4 
4 10 11 23 22 
4 15 13 7 4 
4 13 12 14 15 
4 2 9 18 20 
4 20 18 12 14 
4 1 2 20 21 
4 21 20 14 15 
4 1 6 19 21 
4 21 19 13 15 
4 19 18 20 21 
4 16 17 25 24 
4 24 25 18 19 
4 11 17 25 23 
4 23 25 18 12 
4 10 16 24 22 
4 22 24 19 13 
4 24 25 23 22 
4 0 3 27 26 
4 26 27 9 6 
4 3 17 25 27 
4 27 25 18 9 
4 0 16 24 26 
4 26 24 19 6 
4 26 27 25 24 

CELL_TYPES 34
9 
9 
9 
9 
9 
9 
9 
9 
9 
9 
9 
9 
9 
9 
9 
9 
9 
9 
9 
9 
9 
9 
9 
9 
9 
9 
9 
9 
9 
9 
9 
9 
9 
9 
POINT_DATA 28
SCALARS GMDS_ID int 1
LOOKUP_TABLE default
0 1 2 3 5 6 8 9 10 11 12 13 14 15 16 17 18 19 20 21 22 23 24 25 28 29 30 31 
SCALARS geom_link_dim_0 int 1
LOOKUP_TABLE default
0 0 0 0 0 0 0 0 0 0 0 0 0 0 0 0 0 0 0 0 0 0 0 0 0 0 0 0 
SCALARS geom_link_id_0 int 1
LOOKUP_TABLE default
0 0 0 0 0 0 0 0 0 0 0 0 0 0 0 0 0 0 0 0 0 0 0 0 0 0 0 0 


CELL_DATA 34
SCALARS GMDS_ID int 1
LOOKUP_TABLE default
4 6 9 11 13 14 16 21 22 23 24 25 26 29 30 31 32 33 34 35 38 39 40 41 42 43 44 45 46 47 48 49 50 51 

SCALARS geom_link_dim_0 int 1
LOOKUP_TABLE default
0 0 0 0 0 0 0 0 0 0 0 0 0 0 0 0 0 0 0 0 0 0 0 0 0 0 0 0 0 0 0 0 0 0 

SCALARS geom_link_id_0 int 1
LOOKUP_TABLE default
0 0 0 0 0 0 0 0 0 0 0 0 0 0 0 0 0 0 0 0 0 0 0 0 0 0 0 0 0 0 0 0 0 0 

