# vtk DataFile Version 3.0
Generated by GMDS VTK Writer

ASCII
DATASET UNSTRUCTURED_GRID
POINTS 32 float
0 0 0
0 10 0
3 10 0
3 0 0
0 0 10
0 10 10
3 10 10
3 0 10
0 7 0
0 7 10
3 7 10
3 7 0
0 0 3
3 0 3
3 7 3
0 7 3
3 10 3
0 10 3
0 3 3
3 3 3
3 3 10
0 3 10
0 3 0
3 3 0
0 3 7
3 3 7
3 7 7
0 7 7
0 0 7
3 0 7
3 10 7
0 10 7

CELLS 40 200
4 9 21 24 27 
4 27 26 14 15 
4 21 20 10 9 
4 0 3 13 12 
4 4 7 20 21 
4 9 10 26 27 
4 9 10 6 5 
4 18 19 14 15 
4 8 11 2 1 
4 12 13 19 18 
4 8 11 14 15 
4 10 20 25 26 
4 25 24 18 19 
4 20 21 24 25 
4 2 11 14 16 
4 1 2 16 17 
4 1 8 15 17 
4 15 14 16 17 
4 0 3 23 22 
4 22 23 11 8 
4 3 13 19 23 
4 23 19 14 11 
4 0 12 18 22 
4 22 18 15 8 
4 22 23 19 18 
4 24 25 26 27 
4 4 7 29 28 
4 28 29 13 12 
4 7 20 25 29 
4 29 25 19 13 
4 4 21 24 28 
4 28 24 18 12 
4 28 29 25 24 
4 6 10 26 30 
4 30 26 14 16 
4 5 6 30 31 
4 31 30 16 17 
4 5 9 27 31 
4 31 27 15 17 
4 27 26 30 31 

CELL_TYPES 40
9 
9 
9 
9 
9 
9 
9 
9 
9 
9 
9 
9 
9 
9 
9 
9 
9 
9 
9 
9 
9 
9 
9 
9 
9 
9 
9 
9 
9 
9 
9 
9 
9 
9 
9 
9 
9 
9 
9 
9 
POINT_DATA 32
SCALARS GMDS_ID int 1
LOOKUP_TABLE default
0 1 2 3 4 5 6 7 8 9 10 11 12 13 14 15 16 17 18 19 20 21 22 23 24 25 26 27 28 29 30 31 
SCALARS geom_link_dim_0 int 1
LOOKUP_TABLE default
0 0 0 0 0 0 0 0 0 0 0 0 0 0 0 0 0 0 0 0 0 0 0 0 0 0 0 0 0 0 0 0 
SCALARS geom_link_id_0 int 1
LOOKUP_TABLE default
0 0 0 0 0 0 0 0 0 0 0 0 0 0 0 0 0 0 0 0 0 0 0 0 0 0 0 0 0 0 0 0 


CELL_DATA 40
SCALARS GMDS_ID int 1
LOOKUP_TABLE default
0 1 4 5 6 8 9 11 13 14 15 17 18 19 20 22 24 26 29 30 31 32 33 34 35 37 38 39 40 41 42 43 44 45 46 47 48 49 50 51 

SCALARS geom_link_dim_0 int 1
LOOKUP_TABLE default
0 0 0 0 0 0 0 0 0 0 0 0 0 0 0 0 0 0 0 0 0 0 0 0 0 0 0 0 0 0 0 0 0 0 0 0 0 0 0 0 

SCALARS geom_link_id_0 int 1
LOOKUP_TABLE default
0 0 0 0 0 0 0 0 0 0 0 0 0 0 0 0 0 0 0 0 0 0 0 0 0 0 0 0 0 0 0 0 0 0 0 0 0 0 0 0 

