# vtk DataFile Version 3.0
Generated by GMDS VTK Writer

ASCII
DATASET UNSTRUCTURED_GRID
POINTS 32 float
0 0 0
0 10 0
3 10 0
3 0 0
0 0 10
0 10 10
3 10 10
3 0 10
0 3 0
0 3 10
3 3 10
3 3 0
0 0 7
3 0 7
3 3 7
0 3 7
3 10 7
0 10 7
0 0 3
3 0 3
3 3 3
0 3 3
3 10 3
0 10 3
0 7 7
3 7 7
3 7 10
0 7 10
0 7 0
3 7 0
3 7 3
0 7 3

CELLS 40 200
4 13 14 10 7 
4 5 17 24 27 
4 0 8 21 18 
4 12 13 7 4 
4 21 20 14 15 
4 27 26 10 9 
4 8 11 20 21 
4 19 20 14 13 
4 4 7 10 9 
4 3 11 20 19 
4 18 19 13 12 
4 0 3 11 8 
4 0 3 19 18 
4 5 6 26 27 
4 15 14 10 9 
4 26 25 14 10 
4 12 15 9 4 
4 12 13 14 15 
4 6 16 25 26 
4 25 24 15 14 
4 17 16 6 5 
4 16 17 24 25 
4 18 21 15 12 
4 18 19 20 21 
4 1 2 22 23 
4 23 22 16 17 
4 27 24 15 9 
4 24 25 26 27 
4 1 2 29 28 
4 28 29 11 8 
4 2 22 30 29 
4 29 30 20 11 
4 22 23 31 30 
4 30 31 21 20 
4 1 23 31 28 
4 28 31 21 8 
4 28 29 30 31 
4 16 22 30 25 
4 17 23 31 24 
4 31 30 25 24 

CELL_TYPES 40
9 
9 
9 
9 
9 
9 
9 
9 
9 
9 
9 
9 
9 
9 
9 
9 
9 
9 
9 
9 
9 
9 
9 
9 
9 
9 
9 
9 
9 
9 
9 
9 
9 
9 
9 
9 
9 
9 
9 
9 
POINT_DATA 32
SCALARS GMDS_ID int 1
LOOKUP_TABLE default
0 1 2 3 4 5 6 7 8 9 10 11 12 13 14 15 16 17 18 19 20 21 22 23 24 25 26 27 28 29 30 31 
SCALARS geom_link_dim_0 int 1
LOOKUP_TABLE default
0 0 0 0 0 0 0 0 0 0 0 0 0 0 0 0 0 0 0 0 0 0 0 0 0 0 0 0 0 0 0 0 
SCALARS geom_link_id_0 int 1
LOOKUP_TABLE default
0 0 0 0 0 0 0 0 0 0 0 0 0 0 0 0 0 0 0 0 0 0 0 0 0 0 0 0 0 0 0 0 


CELL_DATA 40
SCALARS GMDS_ID int 1
LOOKUP_TABLE default
0 1 2 3 4 5 6 7 8 10 11 12 14 15 16 17 18 19 20 22 23 24 27 28 31 32 36 37 38 39 40 41 42 43 44 45 46 47 49 51 

SCALARS geom_link_dim_0 int 1
LOOKUP_TABLE default
0 0 0 0 0 0 0 0 0 0 0 0 0 0 0 0 0 0 0 0 0 0 0 0 0 0 0 0 0 0 0 0 0 0 0 0 0 0 0 0 

SCALARS geom_link_id_0 int 1
LOOKUP_TABLE default
0 0 0 0 0 0 0 0 0 0 0 0 0 0 0 0 0 0 0 0 0 0 0 0 0 0 0 0 0 0 0 0 0 0 0 0 0 0 0 0 

