# vtk DataFile Version 3.0
Generated by GMDS VTK Writer

ASCII
DATASET UNSTRUCTURED_GRID
POINTS 16 float
0 0 0
0 10 0
10 0 0
0 0 10
0 10 10
10 0 10
0 5 0
0 5 10
10 5 10
10 5 0
5 0 0
5 0 10
5 5 10
5 5 0
5 10 10
5 10 0

CELLS 3 27
8 0 3 7 6 10 11 12 13 
8 10 11 12 13 2 5 8 9 
8 6 7 4 1 13 12 14 15 

CELL_TYPES 3
12 
12 
12 
POINT_DATA 16
SCALARS GMDS_ID int 1
LOOKUP_TABLE default
0 1 3 4 5 7 8 9 10 11 12 13 14 15 16 17 
SCALARS geom_link_dim int 1
LOOKUP_TABLE default
1 1 1 1 1 1 2 2 1 1 2 2 1 1 1 1 
SCALARS geom_link_id int 1
LOOKUP_TABLE default
2 4 5 1 3 6 6 9 9 12 14 10 8 11 7 10 


CELL_DATA 3
SCALARS GMDS_ID int 1
LOOKUP_TABLE default
0 3 4 

SCALARS is_in int 1
LOOKUP_TABLE default
1 1 1 

SCALARS geom_link_dim int 1
LOOKUP_TABLE default
4 4 4 

SCALARS geom_link_id int 1
LOOKUP_TABLE default
1 1 1 

