# vtk DataFile Version 3.0
Generated by GMDS VTK Writer

ASCII
DATASET UNSTRUCTURED_GRID
POINTS 8 float
0 0 0
0 10 0
10 10 0
10 0 0
0 0 10
0 10 10
10 10 10
10 0 10

CELLS 12 36
2 0 1
2 1 2
2 2 3
2 3 0
2 4 5
2 5 6
2 6 7
2 7 4
2 0 4
2 1 5
2 2 6
2 3 7

CELL_TYPES 12
3 
3 
3 
3 
3 
3 
3 
3 
3 
3 
3 
3 
POINT_DATA 8
SCALARS GMDS_ID int 1
LOOKUP_TABLE default
0 1 2 3 4 5 6 7 
SCALARS geom_link_dim int 1
LOOKUP_TABLE default
1 1 0 1 1 1 0 1 
SCALARS geom_link_id int 1
LOOKUP_TABLE default
2 4 -1 5 1 3 -1 6 


CELL_DATA 12
SCALARS GMDS_ID int 1
LOOKUP_TABLE default
0 1 2 3 4 5 6 7 8 9 10 11 

SCALARS geom_link_dim int 1
LOOKUP_TABLE default
2 0 0 2 2 0 0 2 2 2 0 2 

SCALARS geom_link_id int 1
LOOKUP_TABLE default
6 0 0 14 9 0 0 10 2 5 0 13 

