# vtk DataFile Version 3.0
Generated by GMDS VTK Writer

ASCII
DATASET UNSTRUCTURED_GRID
POINTS 16 float
0 0 0
0 10 0
10 0 0
0 0 10
0 10 10
10 0 10
0 5 0
0 5 10
10 5 10
10 5 0
5 0 0
5 0 10
5 5 10
5 5 0
5 10 10
5 10 0

CELLS 16 80
4 11 12 8 5 
4 3 7 12 11 
4 10 11 5 2 
4 0 3 11 10 
4 0 3 7 6 
4 6 7 4 1 
4 2 5 8 9 
4 6 7 12 13 
4 13 12 8 9 
4 0 6 13 10 
4 10 13 9 2 
4 10 11 12 13 
4 4 7 12 14 
4 1 4 14 15 
4 1 6 13 15 
4 13 12 14 15 

CELL_TYPES 16
9 
9 
9 
9 
9 
9 
9 
9 
9 
9 
9 
9 
9 
9 
9 
9 
POINT_DATA 16
SCALARS GMDS_ID int 1
LOOKUP_TABLE default
0 1 3 4 5 7 8 9 10 11 12 13 14 15 16 17 
SCALARS geom_link_dim int 1
LOOKUP_TABLE default
1 1 1 1 1 1 2 2 1 1 2 2 1 1 1 1 
SCALARS geom_link_id int 1
LOOKUP_TABLE default
2 4 5 1 3 6 6 9 9 12 14 10 8 11 7 10 


CELL_DATA 16
SCALARS GMDS_ID int 1
LOOKUP_TABLE default
0 1 3 5 6 7 10 15 16 17 18 19 20 22 24 26 

SCALARS geom_link_dim int 1
LOOKUP_TABLE default
3 3 3 3 3 3 3 4 3 3 3 4 3 3 3 3 

SCALARS geom_link_id int 1
LOOKUP_TABLE default
4 4 1 1 5 5 2 1 8 7 7 1 4 6 7 3 

