# vtk DataFile Version 3.0
Generated by GMDS VTK Writer

ASCII
DATASET UNSTRUCTURED_GRID
POINTS 16 float
0 10 0
10 10 0
10 0 0
0 10 10
10 10 10
10 0 10
0 5 0
0 5 10
10 5 10
10 5 0
5 0 0
5 0 10
5 5 10
5 5 0
5 10 10
5 10 0

CELLS 16 80
4 11 12 8 5 
4 10 11 5 2 
4 6 7 3 0 
4 2 5 8 9 
4 9 8 4 1 
4 6 7 12 13 
4 13 12 8 9 
4 10 13 9 2 
4 10 11 12 13 
4 3 7 12 14 
4 14 12 8 4 
4 0 3 14 15 
4 15 14 4 1 
4 0 6 13 15 
4 15 13 9 1 
4 13 12 14 15 

CELL_TYPES 16
9 
9 
9 
9 
9 
9 
9 
9 
9 
9 
9 
9 
9 
9 
9 
9 
POINT_DATA 16
SCALARS GMDS_ID int 1
LOOKUP_TABLE default
1 2 3 5 6 7 8 9 10 11 12 13 14 15 16 17 
SCALARS geom_link_dim_0 int 1
LOOKUP_TABLE default
0 0 0 0 0 0 0 0 0 0 0 0 0 0 0 0 
SCALARS geom_link_id_0 int 1
LOOKUP_TABLE default
0 0 0 0 0 0 0 0 0 0 0 0 0 0 0 0 


CELL_DATA 16
SCALARS GMDS_ID int 1
LOOKUP_TABLE default
0 3 7 10 11 15 16 18 19 20 21 22 23 24 25 26 

SCALARS geom_link_dim_0 int 1
LOOKUP_TABLE default
0 0 0 0 0 0 0 0 0 0 0 0 0 0 0 0 

SCALARS geom_link_id_0 int 1
LOOKUP_TABLE default
0 0 0 0 0 0 0 0 0 0 0 0 0 0 0 0 

