# vtk DataFile Version 3.0
Generated by GMDS VTK Writer

ASCII
DATASET UNSTRUCTURED_GRID
POINTS 125 float
0 0 0
0 0 1
0 0 2
0 0 3
0 0 4
0 1 0
0 1 1
0 1 2
0 1 3
0 1 4
0 2 0
0 2 1
0 2 2
0 2 3
0 2 4
0 3 0
0 3 1
0 3 2
0 3 3
0 3 4
0 4 0
0 4 1
0 4 2
0 4 3
0 4 4
1 0 0
1 0 1
1 0 2
1 0 3
1 0 4
1 1 0
1 1 1
1 1 2
1 1 3
1 1 4
1 2 0
1 2 1
1 2 2
1 2 3
1 2 4
1 3 0
1 3 1
1 3 2
1 3 3
1 3 4
1 4 0
1 4 1
1 4 2
1 4 3
1 4 4
2 0 0
2 0 1
2 0 2
2 0 3
2 0 4
2 1 0
2 1 1
2 1 2
2 1 3
2 1 4
2 2 0
2 2 1
2 2 2
2 2 3
2 2 4
2 3 0
2 3 1
2 3 2
2 3 3
2 3 4
2 4 0
2 4 1
2 4 2
2 4 3
2 4 4
3 0 0
3 0 1
3 0 2
3 0 3
3 0 4
3 1 0
3 1 1
3 1 2
3 1 3
3 1 4
3 2 0
3 2 1
3 2 2
3 2 3
3 2 4
3 3 0
3 3 1
3 3 2
3 3 3
3 3 4
3 4 0
3 4 1
3 4 2
3 4 3
3 4 4
4 0 0
4 0 1
4 0 2
4 0 3
4 0 4
4 1 0
4 1 1
4 1 2
4 1 3
4 1 4
4 2 0
4 2 1
4 2 2
4 2 3
4 2 4
4 3 0
4 3 1
4 3 2
4 3 3
4 3 4
4 4 0
4 4 1
4 4 2
4 4 3
4 4 4

CELLS 64 576
8 0 25 30 5 1 26 31 6 
8 1 26 31 6 2 27 32 7 
8 2 27 32 7 3 28 33 8 
8 3 28 33 8 4 29 34 9 
8 5 30 35 10 6 31 36 11 
8 6 31 36 11 7 32 37 12 
8 7 32 37 12 8 33 38 13 
8 8 33 38 13 9 34 39 14 
8 10 35 40 15 11 36 41 16 
8 11 36 41 16 12 37 42 17 
8 12 37 42 17 13 38 43 18 
8 13 38 43 18 14 39 44 19 
8 15 40 45 20 16 41 46 21 
8 16 41 46 21 17 42 47 22 
8 17 42 47 22 18 43 48 23 
8 18 43 48 23 19 44 49 24 
8 25 50 55 30 26 51 56 31 
8 26 51 56 31 27 52 57 32 
8 27 52 57 32 28 53 58 33 
8 28 53 58 33 29 54 59 34 
8 30 55 60 35 31 56 61 36 
8 31 56 61 36 32 57 62 37 
8 32 57 62 37 33 58 63 38 
8 33 58 63 38 34 59 64 39 
8 35 60 65 40 36 61 66 41 
8 36 61 66 41 37 62 67 42 
8 37 62 67 42 38 63 68 43 
8 38 63 68 43 39 64 69 44 
8 40 65 70 45 41 66 71 46 
8 41 66 71 46 42 67 72 47 
8 42 67 72 47 43 68 73 48 
8 43 68 73 48 44 69 74 49 
8 50 75 80 55 51 76 81 56 
8 51 76 81 56 52 77 82 57 
8 52 77 82 57 53 78 83 58 
8 53 78 83 58 54 79 84 59 
8 55 80 85 60 56 81 86 61 
8 56 81 86 61 57 82 87 62 
8 57 82 87 62 58 83 88 63 
8 58 83 88 63 59 84 89 64 
8 60 85 90 65 61 86 91 66 
8 61 86 91 66 62 87 92 67 
8 62 87 92 67 63 88 93 68 
8 63 88 93 68 64 89 94 69 
8 65 90 95 70 66 91 96 71 
8 66 91 96 71 67 92 97 72 
8 67 92 97 72 68 93 98 73 
8 68 93 98 73 69 94 99 74 
8 75 100 105 80 76 101 106 81 
8 76 101 106 81 77 102 107 82 
8 77 102 107 82 78 103 108 83 
8 78 103 108 83 79 104 109 84 
8 80 105 110 85 81 106 111 86 
8 81 106 111 86 82 107 112 87 
8 82 107 112 87 83 108 113 88 
8 83 108 113 88 84 109 114 89 
8 85 110 115 90 86 111 116 91 
8 86 111 116 91 87 112 117 92 
8 87 112 117 92 88 113 118 93 
8 88 113 118 93 89 114 119 94 
8 90 115 120 95 91 116 121 96 
8 91 116 121 96 92 117 122 97 
8 92 117 122 97 93 118 123 98 
8 93 118 123 98 94 119 124 99 

CELL_TYPES 64
12 
12 
12 
12 
12 
12 
12 
12 
12 
12 
12 
12 
12 
12 
12 
12 
12 
12 
12 
12 
12 
12 
12 
12 
12 
12 
12 
12 
12 
12 
12 
12 
12 
12 
12 
12 
12 
12 
12 
12 
12 
12 
12 
12 
12 
12 
12 
12 
12 
12 
12 
12 
12 
12 
12 
12 
12 
12 
12 
12 
12 
12 
12 
12 
POINT_DATA 125
SCALARS GMDS_ID int 1
LOOKUP_TABLE default
0 1 2 3 4 5 6 7 8 9 10 11 12 13 14 15 16 17 18 19 20 21 22 23 24 25 26 27 28 29 30 31 32 33 34 35 36 37 38 39 40 41 42 43 44 45 46 47 48 49 50 51 52 53 54 55 56 57 58 59 60 61 62 63 64 65 66 67 68 69 70 71 72 73 74 75 76 77 78 79 80 81 82 83 84 85 86 87 88 89 90 91 92 93 94 95 96 97 98 99 100 101 102 103 104 105 106 107 108 109 110 111 112 113 114 115 116 117 118 119 120 121 122 123 124 
SCALARS val_int int 1
LOOKUP_TABLE default
0 10 20 30 40 50 60 70 80 90 100 110 120 130 140 150 160 170 180 190 200 210 220 230 240 250 260 270 280 290 300 310 320 330 340 350 360 370 380 390 400 410 420 430 440 450 460 470 480 490 500 510 520 530 540 550 560 570 580 590 600 610 620 630 640 650 660 670 680 690 700 710 720 730 740 750 760 770 780 790 800 810 820 830 840 850 860 870 880 890 900 910 920 930 940 950 960 970 980 990 1000 1010 1020 1030 1040 1050 1060 1070 1080 1090 1100 1110 1120 1130 1140 1150 1160 1170 1180 1190 1200 1210 1220 1230 1240 
VECTORS val_vec float
0 0 1 0 0 1 0 0 1 0 0 1 0 0 1 0 0 1 0 0 1 0 0 1 0 0 1 0 0 1 0 0 1 0 0 1 0 0 1 0 0 1 0 0 1 0 0 1 0 0 1 0 0 1 0 0 1 0 0 1 0 0 1 0 0 1 0 0 1 0 0 1 0 0 1 0 0 1 0 0 1 0 0 1 0 0 1 0 0 1 0 0 1 0 0 1 0 0 1 0 0 1 0 0 1 0 0 1 0 0 1 0 0 1 0 0 1 0 0 1 0 0 1 0 0 1 0 0 1 0 0 1 0 0 1 0 0 1 0 0 1 0 0 1 0 0 1 0 0 1 0 0 1 0 0 1 0 0 1 0 0 1 0 0 1 0 0 1 0 0 1 0 0 1 0 0 1 0 0 1 0 0 1 0 0 1 0 0 1 0 0 1 0 0 1 0 0 1 0 0 1 0 0 1 0 0 1 0 0 1 0 0 1 0 0 1 0 0 1 0 0 1 0 0 1 0 0 1 0 0 1 0 0 1 0 0 1 0 0 1 0 0 1 0 0 1 0 0 1 0 0 1 0 0 1 0 0 1 0 0 1 0 0 1 0 0 1 0 0 1 0 0 1 0 0 1 0 0 1 0 0 1 0 0 1 0 0 1 0 0 1 0 0 1 0 0 1 0 0 1 0 0 1 0 0 1 0 0 1 0 0 1 0 0 1 0 0 1 0 0 1 0 0 1 0 0 1 0 0 1 0 0 1 0 0 1 0 0 1 0 0 1 0 0 1 0 0 1 0 0 1 0 0 1 0 0 1 0 0 1 0 0 1 0 0 1 0 0 1 0 0 1 0 0 1 


CELL_DATA 64
SCALARS GMDS_ID int 1
LOOKUP_TABLE default
0 1 2 3 4 5 6 7 8 9 10 11 12 13 14 15 16 17 18 19 20 21 22 23 24 25 26 27 28 29 30 31 32 33 34 35 36 37 38 39 40 41 42 43 44 45 46 47 48 49 50 51 52 53 54 55 56 57 58 59 60 61 62 63 

SCALARS val_double float 1
LOOKUP_TABLE default
0 0 0 0 0 0 0 0 0 0 0 0 0 0 0 0 0 0 0 0 0 0 0 0 0 0 0 0 0 0 0 0 0 0 0 0 0 0 0 0 0 0 0 0 0 0 0 0 0 0 0 0 0 0 0 0 0 0 0 0 0 0 0 0 

VECTORS val_vec float
0 0 1
0 0 1
0 0 1
0 0 1
0 0 1
0 0 1
0 0 1
0 0 1
0 0 1
0 0 1
0 0 1
0 0 1
0 0 1
0 0 1
0 0 1
0 0 1
0 0 1
0 0 1
0 0 1
0 0 1
0 0 1
0 0 1
0 0 1
0 0 1
0 0 1
0 0 1
0 0 1
0 0 1
0 0 1
0 0 1
0 0 1
0 0 1
0 0 1
0 0 1
0 0 1
0 0 1
0 0 1
0 0 1
0 0 1
0 0 1
0 0 1
0 0 1
0 0 1
0 0 1
0 0 1
0 0 1
0 0 1
0 0 1
0 0 1
0 0 1
0 0 1
0 0 1
0 0 1
0 0 1
0 0 1
0 0 1
0 0 1
0 0 1
0 0 1
0 0 1
0 0 1
0 0 1
0 0 1
0 0 1


