# vtk DataFile Version 3.0
Generated by GMDS VTK Writer

ASCII
DATASET UNSTRUCTURED_GRID
POINTS 36 float
5 0 5
10 0 5
-5 5 -5
5 -5 -5
5 5 10
5 5 -5
0 -5 -5
0 5 10
0 5 -5
5 0 10
5 0 -5
0 0 -5
0 0 10
-5 -4.44089209850063e-16 -5
5 5 5
10 5 5
5 -5 5
5 10 5
0 10 5
0 5 5
-5 5 5
-5 0 5
0 0 5
0 -5 5
10 0 0
5 0 0
5 5 0
10 5 0
5 -5 0
5 10 0
0 10 0
0 5 0
-5 5 0
-5 0 0
0 0 0
0 -5 0

CELLS 9 81
8 26 29 30 31 14 17 18 19 
8 24 25 26 27 1 0 14 15 
8 0 22 19 14 9 12 7 4 
8 13 11 8 2 33 34 31 32 
8 33 34 31 32 21 22 19 20 
8 3 6 11 10 28 35 34 25 
8 28 35 34 25 16 23 22 0 
8 10 11 8 5 25 34 31 26 
8 25 34 31 26 0 22 19 14 

CELL_TYPES 9
12 
12 
12 
12 
12 
12 
12 
12 
12 
POINT_DATA 36
SCALARS GMDS_ID int 1
LOOKUP_TABLE default
0 4 8 12 14 15 18 20 21 24 25 26 27 29 30 31 33 34 35 36 38 39 40 41 42 43 44 45 47 48 49 50 52 53 54 55 
SCALARS geom_link_dim_0 int 1
LOOKUP_TABLE default
0 0 0 0 0 0 0 0 0 0 0 0 0 0 0 0 0 0 0 0 0 0 0 0 0 0 0 0 0 0 0 0 0 0 0 0 
SCALARS geom_link_id_0 int 1
LOOKUP_TABLE default
0 0 0 0 0 0 0 0 0 0 0 0 0 0 0 0 0 0 0 0 0 0 0 0 0 0 0 0 0 0 0 0 0 0 0 0 


CELL_DATA 9
SCALARS GMDS_ID int 1
LOOKUP_TABLE default
4 9 20 22 23 24 25 26 27 

SCALARS geom_link_dim_0 int 1
LOOKUP_TABLE default
0 0 0 0 0 0 0 0 0 

SCALARS geom_link_id_0 int 1
LOOKUP_TABLE default
0 0 0 0 0 0 0 0 0 

