# vtk DataFile Version 3.0
Generated by GMDS VTK Writer

ASCII
DATASET UNSTRUCTURED_GRID
POINTS 32 float
-5 0 0
5 0 10
5 0 -5
5 5 -5
5 5 10
10 5 5
5 5 5
5 10 5
10 0 5
5 0 5
5 -5 5
-5 0 5
-5 5 5
0 0 -5
0 0 5
0 -5 5
0 0 10
0 5 -5
0 5 5
0 5 10
0 10 5
-5 5 0
0 5 0
0 0 0
10 5 0
5 5 0
5 10 0
10 0 0
5 0 0
5 -5 0
0 -5 0
0 10 0

CELLS 7 63
8 27 28 25 24 8 9 6 5 
8 0 21 22 23 11 12 18 14 
8 14 18 19 16 9 6 4 1 
8 30 23 28 29 15 14 9 10 
8 13 17 3 2 23 22 25 28 
8 23 22 25 28 14 18 6 9 
8 31 22 25 26 20 18 6 7 

CELL_TYPES 7
12 
12 
12 
12 
12 
12 
12 
POINT_DATA 32
SCALARS GMDS_ID int 1
LOOKUP_TABLE default
1 14 15 20 21 24 25 26 28 29 31 32 34 37 38 39 40 42 43 44 46 48 49 50 51 52 53 55 56 58 59 61 
SCALARS geom_link_dim int 1
LOOKUP_TABLE default
1 1 1 1 1 1 1 1 1 1 1 1 1 1 1 1 1 1 1 1 1 1 1 1 1 1 1 1 1 1 1 1 
SCALARS geom_link_id int 1
LOOKUP_TABLE default
11 24 25 17 15 22 8 7 30 23 32 13 6 19 14 27 20 18 2 16 3 5 1 12 21 10 9 29 26 31 28 4 


CELL_DATA 7
SCALARS GMDS_ID int 1
LOOKUP_TABLE default
13 17 19 26 29 30 32 

SCALARS is_in int 1
LOOKUP_TABLE default
1 1 1 1 1 1 1 

SCALARS geom_link_dim int 1
LOOKUP_TABLE default
4 4 4 4 4 4 4 

SCALARS geom_link_id int 1
LOOKUP_TABLE default
1 1 1 1 1 1 1 

