# vtk DataFile Version 3.0
Generated by GMDS VTK Writer

ASCII
DATASET UNSTRUCTURED_GRID
POINTS 46 float
5 0 5
10 -5 -5
10 0 5
-5 10 10
10 -4.44089209850063e-16 -5
-5 5 -5
-5 5 10
5 -5 -5
5 -5 10
5 5 10
5 5 -5
5 10 10
0 -5 -5
0 -5 10
0 5 10
0 5 -5
0 10 10
5 0 10
5 0 -5
0 0 -5
0 0 10
-5 -4.44089209850063e-16 -5
5 5 5
10 5 5
5 -5 5
5 10 5
0 10 5
0 5 5
-5 10 5
-5 5 5
-5 0 5
0 0 5
0 -5 5
10 0 0
5 0 0
5 5 0
10 5 0
10 -5 -4.44089209850063e-16
5 -5 0
5 10 0
0 10 0
0 5 0
-5 5 0
-5 0 0
0 0 0
0 -5 0

CELLS 13 117
8 35 39 40 41 22 25 26 27 
8 1 7 18 4 37 38 34 33 
8 33 34 35 36 2 0 22 23 
8 22 25 26 27 9 11 16 14 
8 27 26 28 29 14 16 3 6 
8 24 32 31 0 8 13 20 17 
8 0 31 27 22 17 20 14 9 
8 21 19 15 5 43 44 41 42 
8 43 44 41 42 30 31 27 29 
8 7 12 19 18 38 45 44 34 
8 38 45 44 34 24 32 31 0 
8 18 19 15 10 34 44 41 35 
8 34 44 41 35 0 31 27 22 

CELL_TYPES 13
12 
12 
12 
12 
12 
12 
12 
12 
12 
12 
12 
12 
12 
POINT_DATA 46
SCALARS GMDS_ID int 1
LOOKUP_TABLE default
0 3 4 5 6 8 9 12 13 14 15 16 18 19 20 21 22 24 25 26 27 29 30 31 33 34 35 36 37 38 39 40 41 42 43 44 45 46 47 48 49 50 52 53 54 55 
SCALARS geom_link_dim_0 int 1
LOOKUP_TABLE default
0 0 0 0 0 0 0 0 0 0 0 0 0 0 0 0 0 0 0 0 0 0 0 0 0 0 0 0 0 0 0 0 0 0 0 0 0 0 0 0 0 0 0 0 0 0 
SCALARS geom_link_id_0 int 1
LOOKUP_TABLE default
0 0 0 0 0 0 0 0 0 0 0 0 0 0 0 0 0 0 0 0 0 0 0 0 0 0 0 0 0 0 0 0 0 0 0 0 0 0 0 0 0 0 0 0 0 0 


CELL_DATA 13
SCALARS GMDS_ID int 1
LOOKUP_TABLE default
4 8 9 12 14 18 20 22 23 24 25 26 27 

SCALARS geom_link_dim_0 int 1
LOOKUP_TABLE default
0 0 0 0 0 0 0 0 0 0 0 0 0 

SCALARS geom_link_id_0 int 1
LOOKUP_TABLE default
0 0 0 0 0 0 0 0 0 0 0 0 0 

