# vtk DataFile Version 3.0
Generated by GMDS VTK Writer

ASCII
DATASET UNSTRUCTURED_GRID
POINTS 40 float
-5 -5 -5
10 10 10
10 -5 10
8.88178419700125e-16 -5 -5
8.88178419700125e-16 -5 10
8.88178419700125e-16 10 10
10 5 -5
10 5 10
0 5 10
0 5 -5
-5 5 10
-5 5 -5
5 5 -5
5 5 10
5 10 10
5 -5 -5
5 -5 10
0 0 -5
0 0 10
-5 -4.44089209850063e-16 10
-5 -4.44089209850063e-16 -5
10 -4.44089209850063e-16 -5
10 -4.44089209850063e-16 10
5 0 10
5 0 -5
-5 -5 -8.88178419700125e-16
0 -5 0
0 0 0
-5 0 0
10 10 -8.88178419700125e-16
10 5 0
5 5 0
5 10 0
-5 5 0
0 5 0
0 10 0
10 -5 -8.88178419700125e-16
5 -5 0
5 0 0
10 0 0

CELLS 12 108
8 0 3 17 20 25 26 27 28 
8 29 30 31 32 1 7 13 14 
8 32 31 34 35 14 13 8 5 
8 20 17 9 11 28 27 34 33 
8 28 27 34 33 19 18 8 10 
8 36 37 38 39 2 16 23 22 
8 21 24 12 6 39 38 31 30 
8 39 38 31 30 22 23 13 7 
8 3 15 24 17 26 37 38 27 
8 26 37 38 27 4 16 23 18 
8 17 24 12 9 27 38 31 34 
8 27 38 31 34 18 23 13 8 

CELL_TYPES 12
12 
12 
12 
12 
12 
12 
12 
12 
12 
12 
12 
12 
POINT_DATA 40
SCALARS GMDS_ID int 1
LOOKUP_TABLE default
0 6 7 9 10 11 12 13 14 15 16 17 18 19 20 22 23 24 25 26 27 28 29 30 31 32 33 34 35 36 37 38 39 40 41 42 44 45 46 47 
SCALARS geom_link_dim int 1
LOOKUP_TABLE default
0 0 0 0 0 0 0 0 1 1 0 0 1 1 0 0 0 1 1 0 0 0 0 1 1 0 1 1 1 0 1 1 1 1 1 1 0 1 1 1 
SCALARS geom_link_id int 1
LOOKUP_TABLE default
-1 -1 -1 -1 -1 -1 -1 -1 16 18 -1 -1 17 15 -1 -1 -1 19 20 -1 -1 -1 -1 24 25 -1 28 12 11 -1 21 10 9 5 1 4 -1 31 26 29 


CELL_DATA 12
SCALARS GMDS_ID int 1
LOOKUP_TABLE default
7 12 16 17 18 20 21 22 23 24 25 26 

SCALARS is_in int 1
LOOKUP_TABLE default
0 0 0 0 0 0 0 0 0 0 1 1 

SCALARS geom_link_dim int 1
LOOKUP_TABLE default
0 0 0 0 0 0 0 0 0 0 0 0 

SCALARS geom_link_id int 1
LOOKUP_TABLE default
0 0 0 0 0 0 0 0 0 0 0 0 

