# vtk DataFile Version 3.0
Generated by GMDS VTK Writer

ASCII
DATASET UNSTRUCTURED_GRID
POINTS 64 float
-5 -5 -5
-5 10 -5
10 10 -5
10 -5 -5
-5 -5 10
-5 10 10
10 10 10
10 -5 10
-5 -8.88178419700125e-16 -5
-5 -8.88178419700125e-16 10
10 -8.88178419700125e-16 10
10 -8.88178419700125e-16 -5
-5 -5 -8.88178419700125e-16
10 -5 -8.88178419700125e-16
10 0 0
-5 0 0
10 10 -8.88178419700125e-16
-5 10 -8.88178419700125e-16
-8.88178419700125e-16 -5 -5
0 0 -5
-8.88178419700125e-16 0 0
0 -5 0
0 0 10
-8.88178419700125e-16 -5 10
-8.88178419700125e-16 10 -5
0 10 0
-8.88178419700125e-16 10 10
-5 5 -5
-5 5 0
-4.44089209850063e-16 5 0
0 5 -5
10 5 0
10 5 -5
-5 5 10
0 5 10
10 5 10
0 -5 5
-4.44089209850063e-16 0 5
10 0 5
10 -5 5
10 5 5
-2.22044604925031e-16 5 5
-5 -5 5
-5 0 5
10 10 5
0 10 5
-5 5 5
-5 10 5
5 5 -5
5 5 0
5 0 0
5 0 -5
5 10 -5
5 10 0
5 5 5
5 0 5
5 -5 -5
5 -5 0
5 -5 5
5 -5 10
5 0 10
5 5 10
5 10 5
5 10 10

CELLS 27 243
8 0 8 15 12 18 19 20 21 
8 27 28 29 30 8 15 20 19 
8 1 17 25 24 27 28 29 30 
8 52 53 49 48 2 16 31 32 
8 50 49 54 55 14 31 40 38 
8 30 29 20 19 48 49 50 51 
8 48 49 50 51 32 31 14 11 
8 24 25 29 30 52 53 49 48 
8 20 29 41 37 50 49 54 55 
8 12 15 20 21 42 43 37 36 
8 42 43 37 36 4 9 22 23 
8 28 29 20 15 46 41 37 43 
8 46 41 37 43 33 34 22 9 
8 17 25 29 28 47 45 41 46 
8 47 45 41 46 5 26 34 33 
8 18 19 20 21 56 51 50 57 
8 56 51 50 57 3 11 14 13 
8 37 36 23 22 55 58 59 60 
8 55 58 59 60 38 39 7 10 
8 20 21 36 37 50 57 58 55 
8 50 57 58 55 14 13 39 38 
8 37 41 34 22 55 54 61 60 
8 55 54 61 60 38 40 35 10 
8 25 29 41 45 53 49 54 62 
8 53 49 54 62 16 31 40 44 
8 45 41 34 26 62 54 61 63 
8 62 54 61 63 44 40 35 6 

CELL_TYPES 27
12 
12 
12 
12 
12 
12 
12 
12 
12 
12 
12 
12 
12 
12 
12 
12 
12 
12 
12 
12 
12 
12 
12 
12 
12 
12 
12 
POINT_DATA 64
SCALARS GMDS_ID int 1
LOOKUP_TABLE default
0 1 2 3 4 5 6 7 8 9 10 11 12 13 14 15 16 17 18 19 20 21 22 23 24 25 26 27 28 29 30 31 32 33 34 35 36 37 38 39 40 41 42 43 44 45 46 47 48 49 50 51 52 53 54 55 56 57 58 59 60 61 62 63 
SCALARS geom_link_dim_0 int 1
LOOKUP_TABLE default
0 0 0 0 0 0 0 0 0 0 0 0 0 0 0 0 0 0 0 0 0 0 0 0 0 0 0 0 0 0 0 0 0 0 0 0 0 0 0 0 0 0 0 0 0 0 0 0 0 0 0 0 0 0 0 0 0 0 0 0 0 0 0 0 
SCALARS geom_link_id_0 int 1
LOOKUP_TABLE default
0 0 0 0 0 0 0 0 0 0 0 0 0 0 0 0 0 0 0 0 0 0 0 0 0 0 0 0 0 0 0 0 0 0 0 0 0 0 0 0 0 0 0 0 0 0 0 0 0 0 0 0 0 0 0 0 0 0 0 0 0 0 0 0 


CELL_DATA 27
SCALARS GMDS_ID int 1
LOOKUP_TABLE default
2 4 5 6 7 12 13 14 15 16 17 20 21 22 23 24 25 26 27 28 29 30 31 32 33 34 35 

SCALARS geom_link_dim_0 int 1
LOOKUP_TABLE default
0 0 0 0 0 0 0 0 0 0 0 0 0 0 0 0 0 0 0 0 0 0 0 0 0 0 0 

SCALARS geom_link_id_0 int 1
LOOKUP_TABLE default
0 0 0 0 0 0 0 0 0 0 0 0 0 0 0 0 0 0 0 0 0 0 0 0 0 0 0 

