# vtk DataFile Version 3.0
Generated by GMDS VTK Writer

ASCII
DATASET UNSTRUCTURED_GRID
POINTS 37 float
-5 -5 -5
-5 10 10
8.88178419700125e-16 -5 -5
5 -5 -5
5 -5 10
10 10 -8.88178419700125e-16
10 -5 -8.88178419700125e-16
5 -5 0
5 10 0
-5 -5 -8.88178419700125e-16
-5 10 -8.88178419700125e-16
10 10 5
10 -5 5
5 -5 5
5 10 5
-5 -5 5
-5 10 5
0 10 0
0 -5 0
0 10 5
0 -5 5
8.88178419700125e-16 10 10
8.88178419700125e-16 -5 10
5 5 -5
5 5 0
10 5 0
5 5 5
10 5 5
0 5 -5
0 5 0
-5 5 -5
-5 5 0
-5 5 5
0 5 5
-5 5 10
0 5 10
5 5 10

CELLS 10 90
8 6 7 13 12 25 24 26 27 
8 25 24 26 27 5 8 14 11 
8 2 18 7 3 28 29 24 23 
8 0 9 18 2 30 31 29 28 
8 9 15 20 18 31 32 33 29 
8 31 32 33 29 10 16 19 17 
8 18 20 13 7 29 33 26 24 
8 29 33 26 24 17 19 14 8 
8 34 32 33 35 1 16 19 21 
8 22 20 13 4 35 33 26 36 

CELL_TYPES 10
12 
12 
12 
12 
12 
12 
12 
12 
12 
12 
POINT_DATA 37
SCALARS GMDS_ID int 1
LOOKUP_TABLE default
0 5 7 9 10 12 13 14 15 16 17 18 19 20 21 22 23 24 25 26 27 28 29 31 32 33 34 35 36 37 38 39 40 41 42 43 44 
SCALARS geom_link_dim int 1
LOOKUP_TABLE default
0 0 0 0 0 0 0 1 1 0 0 0 0 1 1 0 0 1 1 1 1 0 0 1 1 1 1 1 1 1 0 1 1 1 0 1 1 
SCALARS geom_link_id int 1
LOOKUP_TABLE default
-1 -1 -1 -1 -1 -1 -1 31 9 -1 -1 -1 -1 32 7 -1 -1 4 28 3 27 -1 -1 17 10 21 8 22 18 1 -1 5 6 2 -1 16 15 


CELL_DATA 10
SCALARS GMDS_ID int 1
LOOKUP_TABLE default
4 11 12 14 16 17 18 19 21 22 

SCALARS is_in int 1
LOOKUP_TABLE default
0 0 0 0 0 0 1 1 0 0 

SCALARS geom_link_dim int 1
LOOKUP_TABLE default
0 0 0 0 0 0 0 0 0 0 

SCALARS geom_link_id int 1
LOOKUP_TABLE default
0 0 0 0 0 0 0 0 0 0 

