# vtk DataFile Version 3.0
Generated by GMDS VTK Writer

ASCII
DATASET UNSTRUCTURED_GRID
POINTS 40 float
5 0 -5
5 0 10
0 0 10
5 0 5
-5 0 5
8.88178419700125e-16 -5 -5
-5 0 0
5 -5 -5
5 -5 10
0 0 -5
10 -5 -8.88178419700125e-16
5 -5 0
5 10 0
-5 10 -8.88178419700125e-16
10 0 5
10 -5 5
5 -5 5
5 10 5
-5 10 5
0 10 0
0 -5 0
0 10 5
0 -5 5
5 0 0
8.88178419700125e-16 -5 10
0 0 5
5 5 -5
5 5 0
10 5 0
5 5 5
10 5 5
0 5 -5
0 5 0
0 0 0
-5 5 0
-5 5 5
0 5 5
10 0 0
0 5 10
5 5 10

CELLS 11 99
8 20 22 16 11 33 25 3 23 
8 2 25 3 1 38 36 29 39 
8 37 23 3 14 28 27 29 30 
8 9 33 23 0 31 32 27 26 
8 5 20 11 7 9 33 23 0 
8 6 4 25 33 34 35 36 32 
8 34 35 36 32 13 18 21 19 
8 32 36 29 27 19 21 17 12 
8 33 25 3 23 32 36 29 27 
8 10 11 16 15 37 23 3 14 
8 24 22 16 8 2 25 3 1 

CELL_TYPES 11
12 
12 
12 
12 
12 
12 
12 
12 
12 
12 
12 
POINT_DATA 40
SCALARS GMDS_ID int 1
LOOKUP_TABLE default
0 1 3 5 6 7 8 9 10 12 13 14 15 17 18 19 20 21 23 24 25 26 27 28 29 30 31 32 33 34 35 36 37 38 39 40 41 42 43 44 
SCALARS geom_link_dim int 1
LOOKUP_TABLE default
1 1 1 1 1 0 1 0 0 1 0 1 1 0 1 0 1 1 0 1 1 1 1 1 0 1 1 1 1 1 1 1 1 1 1 1 1 1 1 1 
SCALARS geom_link_id int 1
LOOKUP_TABLE default
25 24 20 23 13 -1 11 -1 -1 19 -1 31 9 -1 30 -1 32 7 -1 4 28 3 27 26 -1 14 17 10 21 8 22 18 1 12 5 6 2 29 16 15 


CELL_DATA 11
SCALARS GMDS_ID int 1
LOOKUP_TABLE default
6 10 11 13 14 15 17 19 20 21 23 

SCALARS is_in int 1
LOOKUP_TABLE default
1 1 1 1 0 1 0 1 1 0 0 

SCALARS geom_link_dim int 1
LOOKUP_TABLE default
0 0 0 0 0 0 0 0 0 0 0 

SCALARS geom_link_id int 1
LOOKUP_TABLE default
0 0 0 0 0 0 0 0 0 0 0 

