# vtk DataFile Version 3.0
Generated by GMDS VTK Writer

ASCII
DATASET UNSTRUCTURED_GRID
POINTS 28 float
-5 10 -5
10 -4.44089209850063e-16 10
10 -5 -5
-5 10 10
10 -4.44089209850063e-16 -5
10 -5 10
-5 5 -5
-5 5 10
10 5 10
10 5 -5
5 -5 -5
5 -5 10
5 5 10
5 5 -5
5 10 10
5 10 -5
0 -5 -5
0 -5 10
0 5 10
0 5 -5
0 10 10
0 10 -5
5 0 10
5 0 -5
0 0 -5
0 0 10
-5 -4.44089209850063e-16 10
-5 -4.44089209850063e-16 -5

CELLS 7 63
8 2 5 11 10 4 1 22 23 
8 4 1 22 23 9 8 12 13 
8 13 12 14 15 19 18 20 21 
8 19 18 20 21 6 7 3 0 
8 24 25 26 27 19 18 7 6 
8 10 11 17 16 23 22 25 24 
8 23 22 25 24 13 12 18 19 

CELL_TYPES 7
12 
12 
12 
12 
12 
12 
12 
POINT_DATA 28
SCALARS GMDS_ID int 1
LOOKUP_TABLE default
1 2 3 5 6 7 8 9 10 11 12 13 14 15 16 17 18 19 20 21 22 23 24 25 26 27 28 29 
SCALARS geom_link_dim_0 int 1
LOOKUP_TABLE default
0 0 0 0 0 0 0 0 0 0 0 0 0 0 0 0 0 0 0 0 0 0 0 0 0 0 0 0 
SCALARS geom_link_id_0 int 1
LOOKUP_TABLE default
0 0 0 0 0 0 0 0 0 0 0 0 0 0 0 0 0 0 0 0 0 0 0 0 0 0 0 0 


CELL_DATA 7
SCALARS GMDS_ID int 1
LOOKUP_TABLE default
4 5 6 7 8 9 10 

SCALARS geom_link_dim_0 int 1
LOOKUP_TABLE default
0 0 0 0 0 0 0 

SCALARS geom_link_id_0 int 1
LOOKUP_TABLE default
0 0 0 0 0 0 0 

