# vtk DataFile Version 3.0
Generated by GMDS VTK Writer

ASCII
DATASET UNSTRUCTURED_GRID
POINTS 44 float
5 0 5
10 -5 -5
10 0 5
-5 10 10
10 -4.44089209850063e-16 -5
-5 5 -5
-5 5 10
5 -5 -5
5 5 10
5 5 -5
5 10 10
0 -5 -5
0 5 10
0 5 -5
0 10 10
5 0 10
5 0 -5
0 0 -5
0 0 10
-5 -4.44089209850063e-16 -5
5 5 5
10 5 5
5 -5 5
5 10 5
0 10 5
0 5 5
-5 10 5
-5 5 5
-5 0 5
0 0 5
0 -5 5
10 0 0
5 0 0
5 5 0
10 5 0
10 -5 -4.44089209850063e-16
5 -5 0
5 10 0
0 10 0
0 5 0
-5 5 0
-5 0 0
0 0 0
0 -5 0

CELLS 12 108
8 33 37 38 39 20 23 24 25 
8 1 7 16 4 35 36 32 31 
8 31 32 33 34 2 0 20 21 
8 20 23 24 25 8 10 14 12 
8 25 24 26 27 12 14 3 6 
8 0 29 25 20 15 18 12 8 
8 19 17 13 5 41 42 39 40 
8 41 42 39 40 28 29 25 27 
8 7 11 17 16 36 43 42 32 
8 36 43 42 32 22 30 29 0 
8 16 17 13 9 32 42 39 33 
8 32 42 39 33 0 29 25 20 

CELL_TYPES 12
12 
12 
12 
12 
12 
12 
12 
12 
12 
12 
12 
12 
POINT_DATA 44
SCALARS GMDS_ID int 1
LOOKUP_TABLE default
0 3 4 5 6 8 9 12 14 15 16 18 20 21 22 24 25 26 27 29 30 31 33 34 35 36 37 38 39 40 41 42 43 44 45 46 47 48 49 50 52 53 54 55 
SCALARS geom_link_dim_0 int 1
LOOKUP_TABLE default
0 0 0 0 0 0 0 0 0 0 0 0 0 0 0 0 0 0 0 0 0 0 0 0 0 0 0 0 0 0 0 0 0 0 0 0 0 0 0 0 0 0 0 0 
SCALARS geom_link_id_0 int 1
LOOKUP_TABLE default
0 0 0 0 0 0 0 0 0 0 0 0 0 0 0 0 0 0 0 0 0 0 0 0 0 0 0 0 0 0 0 0 0 0 0 0 0 0 0 0 0 0 0 0 


CELL_DATA 12
SCALARS GMDS_ID int 1
LOOKUP_TABLE default
4 8 9 12 14 20 22 23 24 25 26 27 

SCALARS geom_link_dim_0 int 1
LOOKUP_TABLE default
0 0 0 0 0 0 0 0 0 0 0 0 

SCALARS geom_link_id_0 int 1
LOOKUP_TABLE default
0 0 0 0 0 0 0 0 0 0 0 0 

