# vtk DataFile Version 3.0
Generated by GMDS VTK Writer

ASCII
DATASET UNSTRUCTURED_GRID
POINTS 30 float
5 -5 0
5 10 0
10 10 -5
10 -5 -5
-5 -5 10
-5 10 10
10 10 10
10 -5 10
8.88178419700125e-16 10 -5
8.88178419700125e-16 -5 -5
8.88178419700125e-16 -5 10
8.88178419700125e-16 10 10
10 10 -8.88178419700125e-16
10 -5 -8.88178419700125e-16
0 -5 0
0 10 0
-5 -5 -8.88178419700125e-16
-5 10 -8.88178419700125e-16
5 -5 10
5 10 10
5 10 -5
5 -5 -5
5 10 5
5 -5 5
0 -5 5
0 10 5
10 10 5
10 -5 5
-5 -5 5
-5 10 5

CELLS 8 72
8 1 0 14 15 22 23 24 25 
8 2 3 13 12 20 21 0 1 
8 22 23 24 25 19 18 10 11 
8 20 21 0 1 8 9 14 15 
8 12 13 0 1 26 27 23 22 
8 26 27 23 22 6 7 18 19 
8 15 14 16 17 25 24 28 29 
8 25 24 28 29 11 10 4 5 

CELL_TYPES 8
12 
12 
12 
12 
12 
12 
12 
12 
POINT_DATA 30
SCALARS GMDS_ID int 1
LOOKUP_TABLE default
0 1 2 3 4 5 6 7 8 9 10 11 12 13 14 15 16 17 18 19 20 21 22 23 24 25 26 27 28 29 
SCALARS geom_link_dim int 1
LOOKUP_TABLE default
1 1 0 0 0 0 0 0 0 0 0 0 0 0 1 1 0 0 0 0 0 0 1 1 1 1 0 0 0 0 
SCALARS geom_link_id int 1
LOOKUP_TABLE default
31 9 -1 -1 -1 -1 -1 -1 -1 -1 -1 -1 -1 -1 28 4 -1 -1 -1 -1 -1 -1 7 32 27 3 -1 -1 -1 -1 


CELL_DATA 8
SCALARS GMDS_ID int 1
LOOKUP_TABLE default
0 1 3 6 7 8 9 10 

SCALARS is_in int 1
LOOKUP_TABLE default
1 0 1 1 1 0 1 0 

SCALARS geom_link_dim int 1
LOOKUP_TABLE default
0 0 0 0 0 0 0 0 

SCALARS geom_link_id int 1
LOOKUP_TABLE default
-1 0 -1 0 -1 -1 -1 -1 

