# vtk DataFile Version 3.0
Generated by GMDS VTK Writer

ASCII
DATASET UNSTRUCTURED_GRID
POINTS 32 float
5 -5 0
5 10 0
0 0 5
5 0 5
5 0 10
0 0 10
0 -5 0
0 10 0
5 10 5
5 -5 5
0 -5 5
0 10 5
5 0 0
0 0 0
10 0 0
5 0 -5
0 0 -5
10 0 5
-5 0 0
-5 0 5
5 5 0
0 5 0
0 5 5
5 5 5
0 5 10
5 5 10
10 5 0
5 5 -5
0 5 -5
10 5 5
-5 5 0
-5 5 5

CELLS 7 63
8 0 6 10 9 12 13 2 3 
8 3 2 5 4 23 22 24 25 
8 20 21 22 23 1 7 11 8 
8 12 13 2 3 20 21 22 23 
8 15 12 13 16 27 20 21 28 
8 12 14 17 3 20 26 29 23 
8 13 18 19 2 21 30 31 22 

CELL_TYPES 7
12 
12 
12 
12 
12 
12 
12 
POINT_DATA 32
SCALARS GMDS_ID int 1
LOOKUP_TABLE default
0 1 4 5 6 7 14 15 22 23 24 25 30 31 33 34 35 36 37 38 39 40 41 42 43 44 46 47 48 49 50 51 
SCALARS geom_link_dim int 1
LOOKUP_TABLE default
1 1 1 1 1 1 1 1 1 1 1 1 1 1 1 1 1 1 1 1 1 1 1 1 1 1 1 1 1 1 1 1 
SCALARS geom_link_id int 1
LOOKUP_TABLE default
31 9 14 23 24 20 28 4 7 32 27 3 26 12 29 25 19 30 11 13 10 1 2 8 16 15 21 17 18 22 5 6 


CELL_DATA 7
SCALARS GMDS_ID int 1
LOOKUP_TABLE default
5 6 7 9 18 20 22 

SCALARS is_in int 1
LOOKUP_TABLE default
1 1 1 1 1 1 1 

SCALARS geom_link_dim int 1
LOOKUP_TABLE default
4 4 4 4 4 4 4 

SCALARS geom_link_id int 1
LOOKUP_TABLE default
1 1 1 1 1 1 1 

