# vtk DataFile Version 3.0
Generated by GMDS VTK Writer

ASCII
DATASET UNSTRUCTURED_GRID
POINTS 45 float
-5 -5 -5
-5 -5 10
10 -5 10
-5 -8.88178419700125e-16 -5
-5 -8.88178419700125e-16 10
10 -8.88178419700125e-16 10
-5 -5 -8.88178419700125e-16
10 -5 -8.88178419700125e-16
10 0 0
-5 0 0
-5 -5 5
10 -5 5
10 0 5
-5 0 5
10 5 0
-5 5 0
-5 5 5
10 5 5
0 10 0
0 5 0
0 5 -5
0 -5 0
0 0 0
0 0 5
0 -5 5
-8.88178419700125e-16 -5 -5
0 0 -5
0 0 10
-8.88178419700125e-16 -5 10
0 10 5
0 5 5
0 5 10
5 10 0
5 5 0
5 5 -5
5 -5 0
5 0 0
5 0 5
5 -5 5
5 0 -5
5 0 10
5 -5 10
5 10 5
5 5 5
5 5 10

CELLS 11 99
8 38 37 40 41 11 12 5 2 
8 20 19 22 26 34 33 36 39 
8 35 36 37 38 7 8 12 11 
8 21 22 23 24 35 36 37 38 
8 0 3 9 6 25 26 22 21 
8 10 13 4 1 24 23 27 28 
8 15 16 13 9 19 30 23 22 
8 18 29 30 19 32 42 43 33 
8 19 30 23 22 33 43 37 36 
8 33 43 37 36 14 17 12 8 
8 31 30 23 27 44 43 37 40 

CELL_TYPES 11
12 
12 
12 
12 
12 
12 
12 
12 
12 
12 
12 
POINT_DATA 45
SCALARS GMDS_ID int 1
LOOKUP_TABLE default
0 1 2 3 4 5 6 7 8 9 10 11 12 13 14 15 16 17 19 20 21 22 23 24 25 26 27 28 29 30 31 32 33 34 35 36 37 38 39 40 41 42 43 44 45 
SCALARS geom_link_dim int 1
LOOKUP_TABLE default
0 0 0 0 0 0 0 0 1 1 0 0 1 1 1 1 1 1 1 1 1 1 1 1 1 0 1 1 0 1 1 1 1 1 1 1 1 1 1 1 1 0 1 1 1 
SCALARS geom_link_id int 1
LOOKUP_TABLE default
-1 -1 -1 -1 -1 -1 -1 -1 29 11 -1 -1 30 13 21 5 6 22 4 1 18 28 12 14 27 -1 19 20 -1 3 2 16 9 10 17 31 26 23 32 25 24 -1 7 8 15 


CELL_DATA 11
SCALARS GMDS_ID int 1
LOOKUP_TABLE default
0 1 2 3 4 5 6 7 8 9 10 

SCALARS is_in int 1
LOOKUP_TABLE default
0 0 0 0 0 0 0 0 0 0 0 

SCALARS geom_link_dim int 1
LOOKUP_TABLE default
0 0 0 0 0 0 0 0 0 0 0 

SCALARS geom_link_id int 1
LOOKUP_TABLE default
0 0 0 0 0 0 0 0 0 0 0 

