# vtk DataFile Version 3.0
Generated by GMDS VTK Writer

ASCII
DATASET UNSTRUCTURED_GRID
POINTS 40 float
10 5 5
0 10 5
5 5 5
5 -5 5
10 0 5
8.88178419700125e-16 -5 10
8.88178419700125e-16 10 10
0 0 5
0 5 10
0 5 -5
-5 5 10
-5 5 -5
5 5 -5
5 5 10
5 10 10
0 -5 5
-5 5 5
5 -5 10
0 0 -5
0 0 10
-5 -4.44089209850063e-16 10
-5 -4.44089209850063e-16 -5
-5 0 5
5 0 10
5 0 -5
5 0 5
0 -5 0
0 0 0
-5 0 0
0 5 5
10 5 0
5 5 0
5 10 0
-5 5 0
0 5 0
0 10 0
5 10 5
5 -5 0
5 0 0
10 0 0

CELLS 11 99
8 27 38 31 34 7 25 2 29 
8 15 3 25 7 5 17 23 19 
8 39 38 31 30 4 25 2 0 
8 36 2 29 1 14 13 8 6 
8 26 37 38 27 15 3 25 7 
8 7 25 2 29 19 23 13 8 
8 21 18 9 11 28 27 34 33 
8 32 31 34 35 36 2 29 1 
8 28 27 34 33 22 7 29 16 
8 22 7 29 16 20 19 8 10 
8 18 24 12 9 27 38 31 34 

CELL_TYPES 11
12 
12 
12 
12 
12 
12 
12 
12 
12 
12 
12 
POINT_DATA 40
SCALARS GMDS_ID int 1
LOOKUP_TABLE default
0 6 7 8 9 10 11 12 14 15 16 17 18 19 20 21 22 23 24 25 26 27 28 30 31 32 33 34 35 36 37 38 39 40 41 42 44 45 46 47 
SCALARS geom_link_dim int 1
LOOKUP_TABLE default
1 1 1 1 1 0 0 1 1 1 0 0 1 1 0 1 1 0 1 1 0 0 1 1 1 1 1 1 1 1 1 1 1 1 1 1 1 1 1 1 
SCALARS geom_link_id int 1
LOOKUP_TABLE default
22 3 8 32 30 -1 -1 14 16 18 -1 -1 17 15 -1 27 6 -1 19 20 -1 -1 13 24 25 23 28 12 11 2 21 10 9 5 1 4 7 31 26 29 


CELL_DATA 11
SCALARS GMDS_ID int 1
LOOKUP_TABLE default
4 6 7 12 13 14 17 20 21 23 25 

SCALARS is_in int 1
LOOKUP_TABLE default
1 0 1 0 1 1 0 1 1 0 1 

SCALARS geom_link_dim int 1
LOOKUP_TABLE default
0 0 0 0 0 0 0 0 0 0 0 

SCALARS geom_link_id int 1
LOOKUP_TABLE default
0 0 0 0 0 0 0 0 0 0 0 

