# vtk DataFile Version 3.0
Generated by GMDS VTK Writer

ASCII
DATASET UNSTRUCTURED_GRID
POINTS 36 float
5 0 -5
5 0 10
0 0 10
5 0 5
-5 0 5
-5 0 0
5 -5 10
0 0 -5
10 -5 -8.88178419700125e-16
5 -5 0
5 10 0
10 0 5
10 -5 5
5 -5 5
5 10 5
0 10 0
0 -5 0
0 10 5
0 -5 5
5 0 0
8.88178419700125e-16 -5 10
0 0 5
5 5 -5
5 5 0
10 5 0
5 5 5
10 5 5
0 5 -5
0 5 0
0 0 0
-5 5 0
-5 5 5
0 5 5
10 0 0
0 5 10
5 5 10

CELLS 9 81
8 16 18 13 9 29 21 3 19 
8 2 21 3 1 34 32 25 35 
8 33 19 3 11 24 23 25 26 
8 7 29 19 0 27 28 23 22 
8 5 4 21 29 30 31 32 28 
8 28 32 25 23 15 17 14 10 
8 29 21 3 19 28 32 25 23 
8 8 9 13 12 33 19 3 11 
8 20 18 13 6 2 21 3 1 

CELL_TYPES 9
12 
12 
12 
12 
12 
12 
12 
12 
12 
POINT_DATA 36
SCALARS GMDS_ID int 1
LOOKUP_TABLE default
0 1 3 5 6 8 10 12 13 14 15 18 19 20 21 24 25 26 27 28 29 30 31 32 33 34 35 36 37 38 39 40 41 42 43 44 
SCALARS geom_link_dim int 1
LOOKUP_TABLE default
1 1 1 1 1 1 0 1 0 1 1 1 0 1 1 1 1 1 1 1 0 1 1 1 1 1 1 1 1 1 1 1 1 1 1 1 
SCALARS geom_link_id int 1
LOOKUP_TABLE default
25 24 20 23 13 11 -1 19 -1 31 9 30 -1 32 7 4 28 3 27 26 -1 14 17 10 21 8 22 18 1 12 5 6 2 29 16 15 


CELL_DATA 9
SCALARS GMDS_ID int 1
LOOKUP_TABLE default
6 10 11 13 15 19 20 21 23 

SCALARS is_in int 1
LOOKUP_TABLE default
1 1 1 1 1 1 1 0 0 

SCALARS geom_link_dim int 1
LOOKUP_TABLE default
0 0 0 0 0 0 0 0 0 

SCALARS geom_link_id int 1
LOOKUP_TABLE default
0 0 0 0 0 0 0 0 0 

