# vtk DataFile Version 3.0
Generated by GMDS VTK Writer

ASCII
DATASET UNSTRUCTURED_GRID
POINTS 36 float
5 -5 0
5 -5 10
10 5 -5
5 5 10
5 5 -5
5 5 0
10 5 0
-5 5 0
5 10 0
0 5 -5
0 5 0
0 -5 0
0 5 10
8.88178419700125e-16 -5 10
0 10 0
10 0 0
5 0 0
5 0 10
0 0 -5
0 0 0
5 0 -5
-5 0 0
10 -4.44089209850063e-16 -5
0 0 10
10 0 5
5 0 5
5 5 5
10 5 5
5 -5 5
-5 5 5
0 5 5
0 10 5
5 10 5
0 -5 5
0 0 5
-5 0 5

CELLS 9 81
8 24 25 26 27 15 16 5 6 
8 18 19 16 20 9 10 5 4 
8 22 20 16 15 2 4 5 6 
8 31 30 26 32 14 10 5 8 
8 35 34 30 29 21 19 10 7 
8 1 13 23 17 28 33 34 25 
8 28 33 34 25 0 11 19 16 
8 17 23 12 3 25 34 30 26 
8 25 34 30 26 16 19 10 5 

CELL_TYPES 9
12 
12 
12 
12 
12 
12 
12 
12 
12 
POINT_DATA 36
SCALARS GMDS_ID int 1
LOOKUP_TABLE default
2 10 12 14 15 18 19 21 22 25 26 27 28 29 31 33 34 35 37 38 39 41 42 44 45 46 47 48 50 52 53 54 55 57 58 59 
SCALARS geom_link_dim_0 int 1
LOOKUP_TABLE default
0 0 0 0 0 0 0 0 0 0 0 0 0 0 0 0 0 0 0 0 0 0 0 0 0 0 0 0 0 0 0 0 0 0 0 0 
SCALARS geom_link_id_0 int 1
LOOKUP_TABLE default
0 0 0 0 0 0 0 0 0 0 0 0 0 0 0 0 0 0 0 0 0 0 0 0 0 0 0 0 0 0 0 0 0 0 0 0 


CELL_DATA 9
SCALARS GMDS_ID int 1
LOOKUP_TABLE default
0 1 17 23 27 28 29 30 31 

SCALARS geom_link_dim_0 int 1
LOOKUP_TABLE default
0 0 0 0 0 0 0 0 0 

SCALARS geom_link_id_0 int 1
LOOKUP_TABLE default
0 0 0 0 0 0 0 0 0 

