# vtk DataFile Version 3.0
Generated by GMDS VTK Writer

ASCII
DATASET UNSTRUCTURED_GRID
POINTS 24 float
-5 -5 -5
-5 10 -5
10 10 -5
10 -5 -5
-5 -5 10
-5 10 10
10 10 10
10 -5 10
-5 -8.88178419700125e-16 -5
-5 -8.88178419700125e-16 10
10 -8.88178419700125e-16 10
10 -8.88178419700125e-16 -5
5 -5 -5
5 -5 10
5 0 10
5 0 -5
5 10 10
5 10 -5
10 5 10
10 5 -5
5 5 -5
5 5 10
-5 5 -5
-5 5 10

CELLS 6 54
8 3 7 10 11 12 13 14 15 
8 18 19 20 21 6 2 17 16 
8 10 11 15 14 18 19 20 21 
8 12 13 14 15 0 4 9 8 
8 14 15 8 9 21 20 22 23 
8 21 20 22 23 16 17 1 5 

CELL_TYPES 6
12 
12 
12 
12 
12 
12 
POINT_DATA 24
SCALARS GMDS_ID int 1
LOOKUP_TABLE default
0 1 2 3 4 5 6 7 8 9 10 11 12 13 14 15 16 17 18 19 20 21 22 23 
SCALARS geom_link_dim int 1
LOOKUP_TABLE default
0 0 0 0 0 0 0 0 0 0 0 0 0 0 1 1 0 0 0 0 1 1 0 0 
SCALARS geom_link_id int 1
LOOKUP_TABLE default
-1 -1 -1 -1 -1 -1 -1 -1 -1 -1 -1 -1 -1 -1 24 25 -1 -1 -1 -1 17 15 -1 -1 


CELL_DATA 6
SCALARS GMDS_ID int 1
LOOKUP_TABLE default
0 1 2 3 6 7 

SCALARS is_in int 1
LOOKUP_TABLE default
0 0 1 1 1 1 

SCALARS geom_link_dim int 1
LOOKUP_TABLE default
0 0 0 0 0 0 

SCALARS geom_link_id int 1
LOOKUP_TABLE default
0 -1 -1 0 -1 -1 

