# vtk DataFile Version 3.0
Generated by GMDS VTK Writer

ASCII
DATASET UNSTRUCTURED_GRID
POINTS 16 float
-5 -5 -5
-5 10 -5
10 -5 -5
-5 -5 10
-5 10 10
10 -5 10
5 10 -5
5 -5 -5
5 -5 10
5 10 10
10 5 -5
10 5 10
5 5 10
5 5 -5
-5 5 10
-5 5 -5

CELLS 3 27
8 2 5 8 7 10 11 12 13 
8 7 8 3 0 13 12 14 15 
8 13 12 14 15 6 9 4 1 

CELL_TYPES 3
12 
12 
12 
POINT_DATA 16
SCALARS GMDS_ID int 1
LOOKUP_TABLE default
0 1 3 4 5 7 8 9 10 11 12 13 14 15 16 17 
SCALARS geom_link_dim_0 int 1
LOOKUP_TABLE default
0 0 0 0 0 0 0 0 0 0 0 0 0 0 0 0 
SCALARS geom_link_id_0 int 1
LOOKUP_TABLE default
0 0 0 0 0 0 0 0 0 0 0 0 0 0 0 0 


CELL_DATA 3
SCALARS GMDS_ID int 1
LOOKUP_TABLE default
0 4 5 

SCALARS geom_link_dim_0 int 1
LOOKUP_TABLE default
0 0 0 

SCALARS geom_link_id_0 int 1
LOOKUP_TABLE default
0 0 0 

