# vtk DataFile Version 3.0
Generated by GMDS VTK Writer

ASCII
DATASET UNSTRUCTURED_GRID
POINTS 16 float
10 10 -5
10 -5 -5
-5 -5 10
-5 10 10
10 10 10
10 -5 10
8.88178419700125e-16 10 -5
8.88178419700125e-16 -5 -5
8.88178419700125e-16 -5 10
8.88178419700125e-16 10 10
10 10 -8.88178419700125e-16
10 -5 -8.88178419700125e-16
0 -5 0
0 10 0
-5 -5 -8.88178419700125e-16
-5 10 -8.88178419700125e-16

CELLS 3 27
8 0 1 7 6 10 11 12 13 
8 10 11 12 13 4 5 8 9 
8 13 12 14 15 9 8 2 3 

CELL_TYPES 3
12 
12 
12 
POINT_DATA 16
SCALARS GMDS_ID int 1
LOOKUP_TABLE default
2 3 4 5 6 7 8 9 10 11 12 13 14 15 16 17 
SCALARS geom_link_dim int 1
LOOKUP_TABLE default
0 0 0 0 0 0 0 0 0 0 0 0 1 1 0 0 
SCALARS geom_link_id int 1
LOOKUP_TABLE default
-1 -1 -1 -1 -1 -1 -1 -1 -1 -1 -1 -1 28 4 -1 -1 


CELL_DATA 3
SCALARS GMDS_ID int 1
LOOKUP_TABLE default
0 3 5 

SCALARS is_in int 1
LOOKUP_TABLE default
0 0 0 

SCALARS geom_link_dim int 1
LOOKUP_TABLE default
0 0 0 

SCALARS geom_link_id int 1
LOOKUP_TABLE default
0 0 0 

