# vtk DataFile Version 3.0
Generated by GMDS VTK Writer

ASCII
DATASET UNSTRUCTURED_GRID
POINTS 46 float
5 -5 0
5 10 0
10 10 -5
0 0 5
5 0 5
5 0 10
0 0 10
8.88178419700125e-16 10 -5
8.88178419700125e-16 -5 -5
8.88178419700125e-16 -5 10
10 10 -8.88178419700125e-16
10 -5 -8.88178419700125e-16
0 -5 0
0 10 0
-5 -5 -8.88178419700125e-16
5 -5 10
5 10 -5
5 -5 -5
5 10 5
5 -5 5
0 -5 5
0 10 5
10 10 5
10 -5 5
-5 -5 5
5 0 0
0 0 0
10 0 0
5 0 -5
0 0 -5
10 0 5
-5 0 0
-5 0 5
5 5 0
0 5 0
0 5 5
5 5 5
0 5 10
5 5 10
10 5 -5
10 5 0
5 5 -5
0 5 -5
10 5 5
-5 5 0
-5 5 5

CELLS 14 126
8 39 40 33 41 2 10 1 16 
8 0 12 20 19 25 26 3 4 
8 4 3 6 5 36 35 37 38 
8 33 34 35 36 1 13 21 18 
8 25 26 3 4 33 34 35 36 
8 19 20 9 15 4 3 6 5 
8 17 0 12 8 28 25 26 29 
8 0 11 23 19 25 27 30 4 
8 12 14 24 20 26 31 32 3 
8 28 25 26 29 41 33 34 42 
8 41 33 34 42 16 1 13 7 
8 25 27 30 4 33 40 43 36 
8 33 40 43 36 1 10 22 18 
8 26 31 32 3 34 44 45 35 

CELL_TYPES 14
12 
12 
12 
12 
12 
12 
12 
12 
12 
12 
12 
12 
12 
12 
POINT_DATA 46
SCALARS GMDS_ID int 1
LOOKUP_TABLE default
0 1 2 4 5 6 7 8 9 10 12 13 14 15 16 18 20 21 22 23 24 25 26 27 28 30 31 33 34 35 36 37 38 39 40 41 42 43 44 45 46 47 48 49 50 51 
SCALARS geom_link_dim int 1
LOOKUP_TABLE default
1 1 0 1 1 1 1 0 0 0 0 0 1 1 0 0 0 0 1 1 1 1 0 0 0 1 1 1 1 1 1 1 1 1 1 1 1 1 1 0 1 1 1 1 1 1 
SCALARS geom_link_id int 1
LOOKUP_TABLE default
31 9 -1 14 23 24 20 -1 -1 -1 -1 -1 28 4 -1 -1 -1 -1 7 32 27 3 -1 -1 -1 26 12 29 25 19 30 11 13 10 1 2 8 16 15 -1 21 17 18 22 5 6 


CELL_DATA 14
SCALARS GMDS_ID int 1
LOOKUP_TABLE default
3 5 6 7 9 10 12 14 16 18 19 20 21 22 

SCALARS is_in int 1
LOOKUP_TABLE default
0 1 1 1 1 0 0 0 0 1 0 1 0 1 

SCALARS geom_link_dim int 1
LOOKUP_TABLE default
0 0 0 0 0 0 0 0 0 0 0 0 0 0 

SCALARS geom_link_id int 1
LOOKUP_TABLE default
0 0 0 0 0 0 0 0 0 0 0 0 0 0 

