# vtk DataFile Version 3.0
Generated by GMDS VTK Writer

ASCII
DATASET UNSTRUCTURED_GRID
POINTS 60 float
-5 -5 -5
-5 10 -5
5 -5 5
-5 -5 10
-5 10 10
10 10 10
10 -5 10
-5 -8.88178419700125e-16 -5
-5 -8.88178419700125e-16 10
10 -8.88178419700125e-16 10
-5 -5 -8.88178419700125e-16
10 -5 -8.88178419700125e-16
10 0 0
-5 0 0
10 10 -8.88178419700125e-16
-5 10 -8.88178419700125e-16
5 -5 -5
5 0 -5
5 0 0
5 -5 0
5 0 10
5 -5 10
5 10 -5
5 10 0
5 10 10
5 0 5
10 0 5
10 -5 5
-5 -5 5
-5 0 5
-5 10 5
5 10 5
10 10 5
-5 5 -5
-5 5 0
5 5 0
5 5 -5
5 5 5
-5 5 5
5 5 10
-5 5 10
10 5 0
10 5 5
10 5 10
0 -5 5
0 0 5
0 0 10
-4.44089209850063e-16 -5 10
0 -5 0
0 0 0
-4.44089209850063e-16 -5 -5
0 0 -5
0 5 -5
0 5 0
-4.44089209850063e-16 10 -5
0 10 0
0 10 5
0 5 5
-4.44089209850063e-16 10 10
0 5 10

CELLS 23 207
8 2 25 26 27 21 20 9 6 
8 0 7 13 10 50 51 49 48 
8 19 18 12 11 2 25 26 27 
8 10 13 29 28 48 49 45 44 
8 44 45 46 47 2 25 20 21 
8 28 29 8 3 44 45 46 47 
8 14 23 31 32 41 35 37 42 
8 41 35 37 42 12 18 25 26 
8 32 31 24 5 42 37 39 43 
8 42 37 39 43 26 25 20 9 
8 50 51 49 48 16 17 18 19 
8 33 34 13 7 52 53 49 51 
8 52 53 49 51 36 35 18 17 
8 1 15 34 33 54 55 53 52 
8 54 55 53 52 22 23 35 36 
8 15 30 38 34 55 56 57 53 
8 55 56 57 53 23 31 37 35 
8 34 38 29 13 53 57 45 49 
8 53 57 45 49 35 37 25 18 
8 4 30 38 40 58 56 57 59 
8 58 56 57 59 24 31 37 39 
8 40 38 29 8 59 57 45 46 
8 59 57 45 46 39 37 25 20 

CELL_TYPES 23
12 
12 
12 
12 
12 
12 
12 
12 
12 
12 
12 
12 
12 
12 
12 
12 
12 
12 
12 
12 
12 
12 
12 
POINT_DATA 60
SCALARS GMDS_ID int 1
LOOKUP_TABLE default
0 1 2 4 5 6 7 8 9 10 12 13 14 15 16 17 18 19 20 21 22 23 24 25 26 27 28 29 30 31 32 33 34 35 36 37 38 39 40 41 42 43 44 45 46 47 48 49 50 51 52 53 54 55 56 57 58 59 60 61 
SCALARS geom_link_dim_0 int 1
LOOKUP_TABLE default
0 0 0 0 0 0 0 0 0 0 0 0 0 0 0 0 0 0 0 0 0 0 0 0 0 0 0 0 0 0 0 0 0 0 0 0 0 0 0 0 0 0 0 0 0 0 0 0 0 0 0 0 0 0 0 0 0 0 0 0 
SCALARS geom_link_id_0 int 1
LOOKUP_TABLE default
0 0 0 0 0 0 0 0 0 0 0 0 0 0 0 0 0 0 0 0 0 0 0 0 0 0 0 0 0 0 0 0 0 0 0 0 0 0 0 0 0 0 0 0 0 0 0 0 0 0 0 0 0 0 0 0 0 0 0 0 


CELL_DATA 23
SCALARS GMDS_ID int 1
LOOKUP_TABLE default
5 8 9 12 13 14 17 18 19 20 21 22 23 24 25 26 27 28 29 30 31 32 33 

SCALARS geom_link_dim_0 int 1
LOOKUP_TABLE default
0 0 0 0 0 0 0 0 0 0 0 0 0 0 0 0 0 0 0 0 0 0 0 

SCALARS geom_link_id_0 int 1
LOOKUP_TABLE default
0 0 0 0 0 0 0 0 0 0 0 0 0 0 0 0 0 0 0 0 0 0 0 

