# vtk DataFile Version 3.0
Generated by GMDS VTK Writer

ASCII
DATASET UNSTRUCTURED_GRID
POINTS 35 float
-5 -5 -5
-5 10 -5
5 -5 5
10 -5 -5
-5 -5 10
-5 10 10
10 10 10
10 -5 10
-5 -8.88178419700125e-16 -5
-5 -8.88178419700125e-16 10
10 -8.88178419700125e-16 10
10 -8.88178419700125e-16 -5
-5 -5 -8.88178419700125e-16
10 -5 -8.88178419700125e-16
10 0 0
-5 0 0
10 10 -8.88178419700125e-16
-5 10 -8.88178419700125e-16
5 -5 -5
5 0 -5
5 0 0
5 -5 0
5 0 10
5 -5 10
5 10 -5
5 10 0
5 10 10
5 0 5
10 0 5
10 -5 5
-5 -5 5
-5 0 5
-5 10 5
5 10 5
10 10 5

CELLS 11 99
8 15 17 25 20 31 32 33 27 
8 18 19 20 21 3 11 14 13 
8 0 8 15 12 18 19 20 21 
8 30 31 27 2 4 9 22 23 
8 12 15 20 21 30 31 27 2 
8 2 27 28 29 23 22 10 7 
8 1 8 15 17 24 19 20 25 
8 21 20 14 13 2 27 28 29 
8 31 32 33 27 9 5 26 22 
8 20 25 16 14 27 33 34 28 
8 27 33 34 28 22 26 6 10 

CELL_TYPES 11
12 
12 
12 
12 
12 
12 
12 
12 
12 
12 
12 
POINT_DATA 35
SCALARS GMDS_ID int 1
LOOKUP_TABLE default
0 1 2 3 4 5 6 7 8 9 10 11 12 13 14 15 16 17 18 19 20 21 22 23 24 25 26 27 28 29 30 31 32 33 34 
SCALARS geom_link_dim_0 int 1
LOOKUP_TABLE default
0 0 0 0 0 0 0 0 0 0 0 0 0 0 0 0 0 0 0 0 0 0 0 0 0 0 0 0 0 0 0 0 0 0 0 
SCALARS geom_link_id_0 int 1
LOOKUP_TABLE default
0 0 0 0 0 0 0 0 0 0 0 0 0 0 0 0 0 0 0 0 0 0 0 0 0 0 0 0 0 0 0 0 0 0 0 


CELL_DATA 11
SCALARS GMDS_ID int 1
LOOKUP_TABLE default
0 1 2 3 4 5 8 9 12 13 14 

SCALARS geom_link_dim_0 int 1
LOOKUP_TABLE default
0 0 0 0 0 0 0 0 0 0 0 

SCALARS geom_link_id_0 int 1
LOOKUP_TABLE default
0 0 0 0 0 0 0 0 0 0 0 

