# vtk DataFile Version 3.0
Generated by GMDS VTK Writer

ASCII
DATASET UNSTRUCTURED_GRID
POINTS 34 float
0 0 10
0 0 0
0 5 5
0 10 0
0 0 5
0 5 -5
0 5 0
0 -5 5
5 -5 0
5 10 0
-5 -5 -8.88178419700125e-16
0 0 -5
5 -5 5
5 10 5
-5 -5 5
0 -5 0
5 0 -5
5 0 0
10 0 0
10 0 5
5 0 5
5 0 10
-5 0 0
-5 0 5
0 10 5
5 5 -5
5 5 0
10 5 0
10 5 5
5 5 5
5 5 10
0 5 10
-5 5 0
-5 5 5

CELLS 8 72
8 15 7 4 1 8 12 20 17 
8 18 17 20 19 27 26 29 28 
8 1 4 2 6 17 20 29 26 
8 10 14 23 22 15 7 4 1 
8 11 1 6 5 16 17 26 25 
8 22 23 33 32 1 4 2 6 
8 6 2 24 3 26 29 13 9 
8 4 0 31 2 20 21 30 29 

CELL_TYPES 8
12 
12 
12 
12 
12 
12 
12 
12 
POINT_DATA 34
SCALARS GMDS_ID int 1
LOOKUP_TABLE default
2 3 4 8 9 10 12 13 14 15 16 18 20 21 22 24 25 26 27 28 29 30 33 34 36 37 38 39 40 41 42 43 45 46 
SCALARS geom_link_dim int 1
LOOKUP_TABLE default
1 1 1 1 1 1 1 1 1 1 0 1 1 1 0 1 1 1 1 1 1 1 1 1 1 1 1 1 1 1 1 1 1 1 
SCALARS geom_link_id int 1
LOOKUP_TABLE default
20 12 2 4 14 18 1 27 31 9 -1 19 32 7 -1 28 25 26 29 30 23 24 11 13 3 17 10 21 22 8 15 16 5 6 


CELL_DATA 8
SCALARS GMDS_ID int 1
LOOKUP_TABLE default
0 1 4 5 6 7 8 12 

SCALARS is_in int 1
LOOKUP_TABLE default
1 1 1 0 1 1 1 1 

SCALARS geom_link_dim int 1
LOOKUP_TABLE default
0 0 0 0 0 0 0 0 

SCALARS geom_link_id int 1
LOOKUP_TABLE default
0 0 0 0 0 0 0 0 

