# vtk DataFile Version 3.0
Generated by GMDS VTK Writer

ASCII
DATASET UNSTRUCTURED_GRID
POINTS 42 float
5 -5 0
5 -5 10
5 10 10
10 5 -5
5 5 10
5 5 -5
-5 5 10
5 5 0
10 5 0
-5 -5 -8.88178419700125e-16
-5 5 0
5 10 0
0 5 -5
0 5 0
0 -5 0
0 5 10
8.88178419700125e-16 -5 10
0 10 0
8.88178419700125e-16 10 10
10 0 0
5 0 0
5 0 10
0 0 -5
0 0 0
5 0 -5
-5 0 0
10 -4.44089209850063e-16 -5
-5 -4.44089209850063e-16 10
0 0 10
10 0 5
5 0 5
5 5 5
10 5 5
5 -5 5
-5 5 5
0 5 5
0 10 5
5 10 5
-5 -5 5
0 -5 5
0 0 5
-5 0 5

CELLS 12 108
8 29 30 31 32 19 20 7 8 
8 22 23 20 24 12 13 7 5 
8 26 24 20 19 3 5 7 8 
8 18 15 4 2 36 35 31 37 
8 36 35 31 37 17 13 7 11 
8 38 39 40 41 9 14 23 25 
8 27 28 15 6 41 40 35 34 
8 41 40 35 34 25 23 13 10 
8 1 16 28 21 33 39 40 30 
8 33 39 40 30 0 14 23 20 
8 21 28 15 4 30 40 35 31 
8 30 40 35 31 20 23 13 7 

CELL_TYPES 12
12 
12 
12 
12 
12 
12 
12 
12 
12 
12 
12 
12 
POINT_DATA 42
SCALARS GMDS_ID int 1
LOOKUP_TABLE default
2 10 11 12 14 15 16 18 19 20 21 22 25 26 27 28 29 31 32 33 34 35 37 38 39 41 42 43 44 45 46 47 48 50 52 53 54 55 56 57 58 59 
SCALARS geom_link_dim_0 int 1
LOOKUP_TABLE default
0 0 0 0 0 0 0 0 0 0 0 0 0 0 0 0 0 0 0 0 0 0 0 0 0 0 0 0 0 0 0 0 0 0 0 0 0 0 0 0 0 0 
SCALARS geom_link_id_0 int 1
LOOKUP_TABLE default
0 0 0 0 0 0 0 0 0 0 0 0 0 0 0 0 0 0 0 0 0 0 0 0 0 0 0 0 0 0 0 0 0 0 0 0 0 0 0 0 0 0 


CELL_DATA 12
SCALARS GMDS_ID int 1
LOOKUP_TABLE default
0 1 17 22 23 25 26 27 28 29 30 31 

SCALARS geom_link_dim_0 int 1
LOOKUP_TABLE default
0 0 0 0 0 0 0 0 0 0 0 0 

SCALARS geom_link_id_0 int 1
LOOKUP_TABLE default
0 0 0 0 0 0 0 0 0 0 0 0 

