# vtk DataFile Version 3.0
Generated by GMDS VTK Writer

ASCII
DATASET UNSTRUCTURED_GRID
POINTS 47 float
-5 -5 -5
-5 10 -5
10 10 -5
-5 -5 10
-5 10 10
10 10 10
10 -5 10
8.88178419700125e-16 10 -5
8.88178419700125e-16 -5 -5
8.88178419700125e-16 -5 10
8.88178419700125e-16 10 10
10 5 -5
10 5 10
0 5 10
0 5 -5
-5 5 10
-5 5 -5
5 5 -5
5 5 10
5 10 10
5 10 -5
5 -5 -5
5 -5 10
0 0 -5
0 0 10
-5 -4.44089209850063e-16 10
-5 -4.44089209850063e-16 -5
10 -4.44089209850063e-16 -5
10 -4.44089209850063e-16 10
5 0 10
5 0 -5
-5 -5 -8.88178419700125e-16
0 -5 0
0 0 -8.88178419700125e-16
-5 0 0
10 10 -8.88178419700125e-16
10 5 0
5 5 -8.88178419700125e-16
5 10 0
-5 5 0
0 5 -8.88178419700125e-16
0 10 0
-5 10 -8.88178419700125e-16
10 -5 -8.88178419700125e-16
5 -5 0
5 0 0
10 0 0

CELLS 17 153
8 2 11 17 20 35 36 37 38 
8 31 32 33 34 3 9 24 25 
8 0 8 23 26 31 32 33 34 
8 35 36 37 38 5 12 18 19 
8 16 14 7 1 39 40 41 42 
8 39 40 41 42 15 13 10 4 
8 20 17 14 7 38 37 40 41 
8 38 37 40 41 19 18 13 10 
8 26 23 14 16 34 33 40 39 
8 34 33 40 39 25 24 13 15 
8 43 44 45 46 6 22 29 28 
8 27 30 17 11 46 45 37 36 
8 46 45 37 36 28 29 18 12 
8 8 21 30 23 32 44 45 33 
8 32 44 45 33 9 22 29 24 
8 23 30 17 14 33 45 37 40 
8 33 45 37 40 24 29 18 13 

CELL_TYPES 17
12 
12 
12 
12 
12 
12 
12 
12 
12 
12 
12 
12 
12 
12 
12 
12 
12 
POINT_DATA 47
SCALARS GMDS_ID int 1
LOOKUP_TABLE default
0 1 2 4 5 6 7 8 9 10 11 12 13 14 15 16 17 18 19 20 21 22 23 24 25 26 27 28 29 30 31 32 33 34 35 36 37 38 39 40 41 42 43 44 45 46 47 
SCALARS geom_link_dim int 1
LOOKUP_TABLE default
0 0 0 0 0 0 0 0 0 0 0 0 0 1 1 0 0 1 1 0 0 0 0 1 1 0 0 0 0 1 1 0 1 0 1 0 1 0 1 1 0 1 0 0 1 1 1 
SCALARS geom_link_id int 1
LOOKUP_TABLE default
-1 -1 -1 -1 -1 -1 -1 -1 -1 -1 -1 -1 -1 16 18 -1 -1 17 15 -1 -1 -1 -1 19 20 -1 -1 -1 -1 24 25 -1 28 0 11 -1 21 0 9 5 0 4 -1 -1 31 26 29 


CELL_DATA 17
SCALARS GMDS_ID int 1
LOOKUP_TABLE default
4 6 7 12 13 14 15 16 17 18 20 21 22 23 24 25 26 

SCALARS is_in int 1
LOOKUP_TABLE default
0 0 0 0 0 0 0 0 0 0 0 0 0 0 0 1 1 

SCALARS geom_link_dim int 1
LOOKUP_TABLE default
0 0 0 0 0 0 0 0 0 0 0 0 0 0 0 0 0 

SCALARS geom_link_id int 1
LOOKUP_TABLE default
0 0 0 0 0 0 0 0 0 0 0 0 0 0 0 0 0 

