# vtk DataFile Version 3.0
Generated by GMDS VTK Writer

ASCII
DATASET UNSTRUCTURED_GRID
POINTS 32 float
0 0 10
0 0 0
0 5 5
0 10 0
0 0 5
0 5 -5
0 5 0
0 -5 5
5 -5 0
5 10 0
0 0 -5
5 -5 5
5 10 5
0 -5 0
5 0 -5
5 0 0
10 0 0
10 0 5
5 0 5
5 0 10
-5 0 0
-5 0 5
0 10 5
5 5 -5
5 5 0
10 5 0
10 5 5
5 5 5
5 5 10
0 5 10
-5 5 0
-5 5 5

CELLS 7 63
8 13 7 4 1 8 11 18 15 
8 16 15 18 17 25 24 27 26 
8 1 4 2 6 15 18 27 24 
8 10 1 6 5 14 15 24 23 
8 20 21 31 30 1 4 2 6 
8 6 2 22 3 24 27 12 9 
8 4 0 29 2 18 19 28 27 

CELL_TYPES 7
12 
12 
12 
12 
12 
12 
12 
POINT_DATA 32
SCALARS GMDS_ID int 1
LOOKUP_TABLE default
2 3 4 8 9 10 12 13 14 15 18 20 21 24 25 26 27 28 29 30 33 34 36 37 38 39 40 41 42 43 45 46 
SCALARS geom_link_dim int 1
LOOKUP_TABLE default
1 1 1 1 1 1 1 1 1 1 1 1 1 1 1 1 1 1 1 1 1 1 1 1 1 1 1 1 1 1 1 1 
SCALARS geom_link_id int 1
LOOKUP_TABLE default
20 12 2 4 14 18 1 27 31 9 19 32 7 28 25 26 29 30 23 24 11 13 3 17 10 21 22 8 15 16 5 6 


CELL_DATA 7
SCALARS GMDS_ID int 1
LOOKUP_TABLE default
0 1 4 6 7 8 12 

SCALARS is_in int 1
LOOKUP_TABLE default
1 1 1 1 1 1 1 

SCALARS geom_link_dim int 1
LOOKUP_TABLE default
4 4 4 4 4 4 4 

SCALARS geom_link_id int 1
LOOKUP_TABLE default
1 1 1 1 1 1 1 

