# vtk DataFile Version 3.0
Generated by GMDS VTK Writer

ASCII
DATASET UNSTRUCTURED_GRID
POINTS 59 float
-5 -5 -5
-5 10 -5
5 -5 0
10 -5 -5
-5 -5 10
-5 10 10
10 -5 -8.88178419700125e-16
5 10 -5
5 -5 -5
5 -5 10
5 10 10
10 5 -5
10 5 10
5 5 10
5 5 -5
-5 5 10
-5 5 -5
5 5 0
10 5 0
-5 -5 -8.88178419700125e-16
-5 5 0
5 10 0
-5 10 -8.88178419700125e-16
8.88178419700125e-16 -5 -5
0 5 -5
0 5 0
0 -5 0
0 5 10
8.88178419700125e-16 -5 10
8.88178419700125e-16 10 -5
0 10 0
8.88178419700125e-16 10 10
10 0 0
5 0 0
5 0 10
10 -4.44089209850063e-16 10
0 0 -5
0 0 0
5 0 -5
-5 -4.44089209850063e-16 -5
-5 0 0
10 -4.44089209850063e-16 -5
-5 -4.44089209850063e-16 10
0 0 10
10 0 5
5 0 5
5 5 5
10 5 5
10 -5 5
5 -5 5
-5 10 5
-5 5 5
0 5 5
0 10 5
5 10 5
-5 -5 5
0 -5 5
0 0 5
-5 0 5

CELLS 23 207
8 44 45 46 47 32 33 17 18 
8 36 37 33 38 24 25 17 14 
8 50 51 52 53 22 20 25 30 
8 5 15 27 31 50 51 52 53 
8 48 49 45 44 6 2 33 32 
8 23 26 2 8 36 37 33 38 
8 35 34 13 12 44 45 46 47 
8 1 16 20 22 29 24 25 30 
8 29 24 25 30 7 14 17 21 
8 0 19 26 23 39 40 37 36 
8 39 40 37 36 16 20 25 24 
8 3 8 2 6 41 38 33 32 
8 41 38 33 32 11 14 17 18 
8 31 27 13 10 53 52 46 54 
8 53 52 46 54 30 25 17 21 
8 4 28 43 42 55 56 57 58 
8 55 56 57 58 19 26 37 40 
8 42 43 27 15 58 57 52 51 
8 58 57 52 51 40 37 25 20 
8 9 28 43 34 49 56 57 45 
8 49 56 57 45 2 26 37 33 
8 34 43 27 13 45 57 52 46 
8 45 57 52 46 33 37 25 17 

CELL_TYPES 23
12 
12 
12 
12 
12 
12 
12 
12 
12 
12 
12 
12 
12 
12 
12 
12 
12 
12 
12 
12 
12 
12 
12 
POINT_DATA 59
SCALARS GMDS_ID int 1
LOOKUP_TABLE default
0 1 2 3 4 5 6 8 9 10 11 12 13 14 15 16 17 18 19 20 21 22 23 24 25 26 27 28 29 30 31 32 33 34 35 36 37 38 39 40 41 42 43 44 45 46 47 48 49 50 51 52 53 54 55 56 57 58 59 
SCALARS geom_link_dim_0 int 1
LOOKUP_TABLE default
0 0 0 0 0 0 0 0 0 0 0 0 0 0 0 0 0 0 0 0 0 0 0 0 0 0 0 0 0 0 0 0 0 0 0 0 0 0 0 0 0 0 0 0 0 0 0 0 0 0 0 0 0 0 0 0 0 0 0 
SCALARS geom_link_id_0 int 1
LOOKUP_TABLE default
0 0 0 0 0 0 0 0 0 0 0 0 0 0 0 0 0 0 0 0 0 0 0 0 0 0 0 0 0 0 0 0 0 0 0 0 0 0 0 0 0 0 0 0 0 0 0 0 0 0 0 0 0 0 0 0 0 0 0 


CELL_DATA 23
SCALARS GMDS_ID int 1
LOOKUP_TABLE default
0 1 2 4 5 6 9 10 11 14 15 16 17 22 23 24 25 26 27 28 29 30 31 

SCALARS geom_link_dim_0 int 1
LOOKUP_TABLE default
0 0 0 0 0 0 0 0 0 0 0 0 0 0 0 0 0 0 0 0 0 0 0 

SCALARS geom_link_id_0 int 1
LOOKUP_TABLE default
0 0 0 0 0 0 0 0 0 0 0 0 0 0 0 0 0 0 0 0 0 0 0 

