# vtk DataFile Version 3.0
Generated by GMDS VTK Writer

ASCII
DATASET UNSTRUCTURED_GRID
POINTS 36 float
-5 -5 -5
-5 10 -5
10 10 -5
10 -5 -5
-5 -5 10
-5 10 10
10 10 10
10 -5 10
-5 -8.88178419700125e-16 -5
-5 -8.88178419700125e-16 10
10 -8.88178419700125e-16 10
10 -8.88178419700125e-16 -5
5 -5 -5
5 -5 10
5 0 10
5 0 -5
5 10 10
5 10 -5
10 5 10
10 5 -5
5 5 -5
5 5 10
-5 5 -5
-5 5 10
10 5 5
5 5 5
5 10 5
10 10 5
10 0 5
5 0 5
10 -5 5
5 -5 5
-5 0 5
-5 -5 5
-5 5 5
-5 10 5

CELLS 12 108
8 24 25 26 27 18 21 16 6 
8 19 20 17 2 24 25 26 27 
8 11 15 20 19 28 29 25 24 
8 28 29 25 24 10 14 21 18 
8 3 11 15 12 30 28 29 31 
8 30 28 29 31 7 10 14 13 
8 12 15 8 0 31 29 32 33 
8 31 29 32 33 13 14 9 4 
8 8 15 20 22 32 29 25 34 
8 32 29 25 34 9 14 21 23 
8 22 20 17 1 34 25 26 35 
8 34 25 26 35 23 21 16 5 

CELL_TYPES 12
12 
12 
12 
12 
12 
12 
12 
12 
12 
12 
12 
12 
POINT_DATA 36
SCALARS GMDS_ID int 1
LOOKUP_TABLE default
0 1 2 3 4 5 6 7 8 9 10 11 12 13 14 15 16 17 18 19 20 21 22 23 24 25 26 27 28 29 30 31 32 33 34 35 
SCALARS geom_link_dim int 1
LOOKUP_TABLE default
0 0 0 0 0 0 0 0 0 0 0 0 0 0 1 1 0 0 0 0 1 1 0 0 1 0 1 0 1 0 0 1 1 0 1 0 
SCALARS geom_link_id int 1
LOOKUP_TABLE default
-1 -1 -1 -1 -1 -1 -1 -1 -1 -1 -1 -1 -1 -1 24 25 -1 -1 -1 -1 17 15 -1 -1 22 -1 7 -1 30 -1 -1 32 13 -1 6 -1 


CELL_DATA 12
SCALARS GMDS_ID int 1
LOOKUP_TABLE default
4 5 8 9 10 11 12 13 14 15 16 17 

SCALARS is_in int 1
LOOKUP_TABLE default
0 0 0 0 0 0 0 0 0 0 0 0 

SCALARS geom_link_dim int 1
LOOKUP_TABLE default
0 0 0 0 0 0 0 0 0 0 0 0 

SCALARS geom_link_id int 1
LOOKUP_TABLE default
-1 -1 -1 -1 -1 -1 -1 -1 -1 -1 -1 -1 

