# vtk DataFile Version 3.0
Generated by GMDS VTK Writer

ASCII
DATASET UNSTRUCTURED_GRID
POINTS 48 float
5 0 5
10 -5 -5
10 0 5
-5 10 10
10 -4.44089209850063e-16 -5
-5 5 -5
-5 5 10
5 -5 -5
5 -5 10
5 5 10
5 5 -5
5 10 10
0 -5 -5
0 -5 10
0 5 10
0 5 -5
0 10 10
5 0 10
5 0 -5
0 0 -5
0 0 10
-5 -4.44089209850063e-16 10
-5 -4.44089209850063e-16 -5
5 5 5
10 5 5
10 -5 5
5 -5 5
5 10 5
0 10 5
0 5 5
-5 10 5
-5 5 5
-5 0 5
0 0 5
0 -5 5
10 0 0
5 0 0
5 5 0
10 5 0
10 -5 -4.44089209850063e-16
5 -5 0
5 10 0
0 10 0
0 5 0
-5 5 0
-5 0 0
0 0 0
0 -5 0

CELLS 15 135
8 37 41 42 43 23 27 28 29 
8 39 40 36 35 25 26 0 2 
8 1 7 18 4 39 40 36 35 
8 35 36 37 38 2 0 23 24 
8 23 27 28 29 9 11 16 14 
8 29 28 30 31 14 16 3 6 
8 32 33 29 31 21 20 14 6 
8 26 34 33 0 8 13 20 17 
8 0 33 29 23 17 20 14 9 
8 22 19 15 5 45 46 43 44 
8 45 46 43 44 32 33 29 31 
8 7 12 19 18 40 47 46 36 
8 40 47 46 36 26 34 33 0 
8 18 19 15 10 36 46 43 37 
8 36 46 43 37 0 33 29 23 

CELL_TYPES 15
12 
12 
12 
12 
12 
12 
12 
12 
12 
12 
12 
12 
12 
12 
12 
POINT_DATA 48
SCALARS GMDS_ID int 1
LOOKUP_TABLE default
0 3 4 5 6 8 9 12 13 14 15 16 18 19 20 21 22 24 25 26 27 28 29 30 31 32 33 34 35 36 37 38 39 40 41 42 43 44 45 46 47 48 49 50 52 53 54 55 
SCALARS geom_link_dim_0 int 1
LOOKUP_TABLE default
0 0 0 0 0 0 0 0 0 0 0 0 0 0 0 0 0 0 0 0 0 0 0 0 0 0 0 0 0 0 0 0 0 0 0 0 0 0 0 0 0 0 0 0 0 0 0 0 
SCALARS geom_link_id_0 int 1
LOOKUP_TABLE default
0 0 0 0 0 0 0 0 0 0 0 0 0 0 0 0 0 0 0 0 0 0 0 0 0 0 0 0 0 0 0 0 0 0 0 0 0 0 0 0 0 0 0 0 0 0 0 0 


CELL_DATA 15
SCALARS GMDS_ID int 1
LOOKUP_TABLE default
4 7 8 9 12 14 16 18 20 22 23 24 25 26 27 

SCALARS geom_link_dim_0 int 1
LOOKUP_TABLE default
0 0 0 0 0 0 0 0 0 0 0 0 0 0 0 

SCALARS geom_link_id_0 int 1
LOOKUP_TABLE default
0 0 0 0 0 0 0 0 0 0 0 0 0 0 0 

