# vtk DataFile Version 3.0
Generated by GMDS VTK Writer

ASCII
DATASET UNSTRUCTURED_GRID
POINTS 8 float
-5 -5 -5
-5 10 -5
10 10 -5
10 -5 -5
-5 -5 10
-5 10 10
10 10 10
10 -5 10

CELLS 1 9
8 0 1 2 3 4 5 6 7 

CELL_TYPES 1
12 
POINT_DATA 8
SCALARS GMDS_ID int 1
LOOKUP_TABLE default
0 1 2 3 4 5 6 7 
SCALARS geom_link_dim int 1
LOOKUP_TABLE default
0 0 0 0 0 0 0 0 
SCALARS geom_link_id int 1
LOOKUP_TABLE default
-1 -1 -1 -1 -1 -1 -1 -1 


CELL_DATA 1
SCALARS GMDS_ID int 1
LOOKUP_TABLE default
0 

SCALARS geom_link_dim int 1
LOOKUP_TABLE default
0 

SCALARS geom_link_id int 1
LOOKUP_TABLE default
0 

