# vtk DataFile Version 3.0
Generated by GMDS VTK Writer

ASCII
DATASET UNSTRUCTURED_GRID
POINTS 62 float
-5 -5 -5
-5 10 -5
5 -5 5
10 -5 -5
-5 -5 10
-5 10 10
10 10 10
10 -5 10
-5 -8.88178419700125e-16 -5
-5 -8.88178419700125e-16 10
10 -8.88178419700125e-16 10
10 -8.88178419700125e-16 -5
-5 -5 -8.88178419700125e-16
10 -5 -8.88178419700125e-16
10 0 0
-5 0 0
10 10 -8.88178419700125e-16
-5 10 -8.88178419700125e-16
5 -5 -5
5 0 -5
5 0 0
5 -5 0
5 0 10
5 -5 10
5 10 -5
5 10 0
5 10 10
5 0 5
10 0 5
10 -5 5
-5 -5 5
-5 0 5
-5 10 5
5 10 5
10 10 5
-5 5 -5
-5 5 0
5 5 0
5 5 -5
5 5 5
-5 5 5
5 5 10
-5 5 10
10 5 0
10 5 5
10 5 10
0 -5 5
0 0 5
0 0 10
-4.44089209850063e-16 -5 10
0 -5 0
0 0 0
-4.44089209850063e-16 -5 -5
0 0 -5
0 5 -5
0 5 0
-4.44089209850063e-16 10 -5
0 10 0
0 10 5
0 5 5
-4.44089209850063e-16 10 10
0 5 10

CELLS 25 225
8 50 51 47 46 21 20 27 2 
8 18 19 20 21 3 11 14 13 
8 2 27 28 29 23 22 10 7 
8 0 8 15 12 52 53 51 50 
8 21 20 14 13 2 27 28 29 
8 12 15 31 30 50 51 47 46 
8 46 47 48 49 2 27 22 23 
8 30 31 9 4 46 47 48 49 
8 16 25 33 34 43 37 39 44 
8 43 37 39 44 14 20 27 28 
8 34 33 26 6 44 39 41 45 
8 44 39 41 45 28 27 22 10 
8 52 53 51 50 18 19 20 21 
8 35 36 15 8 54 55 51 53 
8 54 55 51 53 38 37 20 19 
8 1 17 36 35 56 57 55 54 
8 56 57 55 54 24 25 37 38 
8 17 32 40 36 57 58 59 55 
8 57 58 59 55 25 33 39 37 
8 36 40 31 15 55 59 47 51 
8 55 59 47 51 37 39 27 20 
8 5 32 40 42 60 58 59 61 
8 60 58 59 61 26 33 39 41 
8 42 40 31 9 61 59 47 48 
8 61 59 47 48 41 39 27 22 

CELL_TYPES 25
12 
12 
12 
12 
12 
12 
12 
12 
12 
12 
12 
12 
12 
12 
12 
12 
12 
12 
12 
12 
12 
12 
12 
12 
12 
POINT_DATA 62
SCALARS GMDS_ID int 1
LOOKUP_TABLE default
0 1 2 3 4 5 6 7 8 9 10 11 12 13 14 15 16 17 18 19 20 21 22 23 24 25 26 27 28 29 30 31 32 33 34 35 36 37 38 39 40 41 42 43 44 45 46 47 48 49 50 51 52 53 54 55 56 57 58 59 60 61 
SCALARS geom_link_dim_0 int 1
LOOKUP_TABLE default
0 0 0 0 0 0 0 0 0 0 0 0 0 0 0 0 0 0 0 0 0 0 0 0 0 0 0 0 0 0 0 0 0 0 0 0 0 0 0 0 0 0 0 0 0 0 0 0 0 0 0 0 0 0 0 0 0 0 0 0 0 0 
SCALARS geom_link_id_0 int 1
LOOKUP_TABLE default
0 0 0 0 0 0 0 0 0 0 0 0 0 0 0 0 0 0 0 0 0 0 0 0 0 0 0 0 0 0 0 0 0 0 0 0 0 0 0 0 0 0 0 0 0 0 0 0 0 0 0 0 0 0 0 0 0 0 0 0 0 0 


CELL_DATA 25
SCALARS GMDS_ID int 1
LOOKUP_TABLE default
0 1 5 8 9 12 13 14 17 18 19 20 21 22 23 24 25 26 27 28 29 30 31 32 33 

SCALARS geom_link_dim_0 int 1
LOOKUP_TABLE default
0 0 0 0 0 0 0 0 0 0 0 0 0 0 0 0 0 0 0 0 0 0 0 0 0 

SCALARS geom_link_id_0 int 1
LOOKUP_TABLE default
0 0 0 0 0 0 0 0 0 0 0 0 0 0 0 0 0 0 0 0 0 0 0 0 0 

