# vtk DataFile Version 3.0
Generated by GMDS VTK Writer

ASCII
DATASET UNSTRUCTURED_GRID
POINTS 58 float
-5 10 -5
5 -5 5
-5 -5 10
-5 10 10
10 10 10
-5 -8.88178419700125e-16 -5
-5 -8.88178419700125e-16 10
10 -8.88178419700125e-16 10
-5 -5 -8.88178419700125e-16
10 -5 -8.88178419700125e-16
10 0 0
-5 0 0
10 10 -8.88178419700125e-16
-5 10 -8.88178419700125e-16
5 -5 -5
5 0 -5
5 0 0
5 -5 0
5 0 10
5 -5 10
5 10 -5
5 10 0
5 10 10
5 0 5
10 0 5
10 -5 5
-5 -5 5
-5 0 5
-5 10 5
5 10 5
10 10 5
-5 5 -5
-5 5 0
5 5 0
5 5 -5
5 5 5
-5 5 5
5 5 10
-5 5 10
10 5 0
10 5 5
10 5 10
0 -5 5
0 0 5
0 0 10
-4.44089209850063e-16 -5 10
0 -5 0
0 0 0
-4.44089209850063e-16 -5 -5
0 0 -5
0 5 -5
0 5 0
-4.44089209850063e-16 10 -5
0 10 0
0 10 5
0 5 5
-4.44089209850063e-16 10 10
0 5 10

CELLS 21 189
8 17 16 10 9 1 23 24 25 
8 8 11 27 26 46 47 43 42 
8 42 43 44 45 1 23 18 19 
8 26 27 6 2 42 43 44 45 
8 12 21 29 30 39 33 35 40 
8 39 33 35 40 10 16 23 24 
8 30 29 22 4 40 35 37 41 
8 40 35 37 41 24 23 18 7 
8 48 49 47 46 14 15 16 17 
8 31 32 11 5 50 51 47 49 
8 50 51 47 49 34 33 16 15 
8 0 13 32 31 52 53 51 50 
8 52 53 51 50 20 21 33 34 
8 13 28 36 32 53 54 55 51 
8 53 54 55 51 21 29 35 33 
8 32 36 27 11 51 55 43 47 
8 51 55 43 47 33 35 23 16 
8 3 28 36 38 56 54 55 57 
8 56 54 55 57 22 29 35 37 
8 38 36 27 6 57 55 43 44 
8 57 55 43 44 37 35 23 18 

CELL_TYPES 21
12 
12 
12 
12 
12 
12 
12 
12 
12 
12 
12 
12 
12 
12 
12 
12 
12 
12 
12 
12 
12 
POINT_DATA 58
SCALARS GMDS_ID int 1
LOOKUP_TABLE default
1 2 4 5 6 8 9 10 12 13 14 15 16 17 18 19 20 21 22 23 24 25 26 27 28 29 30 31 32 33 34 35 36 37 38 39 40 41 42 43 44 45 46 47 48 49 50 51 52 53 54 55 56 57 58 59 60 61 
SCALARS geom_link_dim_0 int 1
LOOKUP_TABLE default
0 0 0 0 0 0 0 0 0 0 0 0 0 0 0 0 0 0 0 0 0 0 0 0 0 0 0 0 0 0 0 0 0 0 0 0 0 0 0 0 0 0 0 0 0 0 0 0 0 0 0 0 0 0 0 0 0 0 
SCALARS geom_link_id_0 int 1
LOOKUP_TABLE default
0 0 0 0 0 0 0 0 0 0 0 0 0 0 0 0 0 0 0 0 0 0 0 0 0 0 0 0 0 0 0 0 0 0 0 0 0 0 0 0 0 0 0 0 0 0 0 0 0 0 0 0 0 0 0 0 0 0 


CELL_DATA 21
SCALARS GMDS_ID int 1
LOOKUP_TABLE default
9 12 13 14 17 18 19 20 21 22 23 24 25 26 27 28 29 30 31 32 33 

SCALARS geom_link_dim_0 int 1
LOOKUP_TABLE default
0 0 0 0 0 0 0 0 0 0 0 0 0 0 0 0 0 0 0 0 0 

SCALARS geom_link_id_0 int 1
LOOKUP_TABLE default
0 0 0 0 0 0 0 0 0 0 0 0 0 0 0 0 0 0 0 0 0 

