# vtk DataFile Version 3.0
Generated by GMDS VTK Writer

ASCII
DATASET UNSTRUCTURED_GRID
POINTS 40 float
5 -5 0
5 -5 10
10 5 -5
5 5 10
5 5 -5
-5 5 10
5 5 0
10 5 0
-5 -5 -8.88178419700125e-16
-5 5 0
5 10 0
0 5 -5
0 5 0
0 -5 0
0 5 10
8.88178419700125e-16 -5 10
0 10 0
10 0 0
5 0 0
5 0 10
0 0 -5
0 0 0
5 0 -5
-5 0 0
10 -4.44089209850063e-16 -5
-5 -4.44089209850063e-16 10
0 0 10
10 0 5
5 0 5
5 5 5
10 5 5
5 -5 5
-5 5 5
0 5 5
0 10 5
5 10 5
-5 -5 5
0 -5 5
0 0 5
-5 0 5

CELLS 11 99
8 27 28 29 30 17 18 6 7 
8 20 21 18 22 11 12 6 4 
8 24 22 18 17 2 4 6 7 
8 34 33 29 35 16 12 6 10 
8 36 37 38 39 8 13 21 23 
8 25 26 14 5 39 38 33 32 
8 39 38 33 32 23 21 12 9 
8 1 15 26 19 31 37 38 28 
8 31 37 38 28 0 13 21 18 
8 19 26 14 3 28 38 33 29 
8 28 38 33 29 18 21 12 6 

CELL_TYPES 11
12 
12 
12 
12 
12 
12 
12 
12 
12 
12 
12 
POINT_DATA 40
SCALARS GMDS_ID int 1
LOOKUP_TABLE default
2 10 12 14 15 16 18 19 20 21 22 25 26 27 28 29 31 33 34 35 37 38 39 41 42 43 44 45 46 47 48 50 52 53 54 55 56 57 58 59 
SCALARS geom_link_dim_0 int 1
LOOKUP_TABLE default
0 0 0 0 0 0 0 0 0 0 0 0 0 0 0 0 0 0 0 0 0 0 0 0 0 0 0 0 0 0 0 0 0 0 0 0 0 0 0 0 
SCALARS geom_link_id_0 int 1
LOOKUP_TABLE default
0 0 0 0 0 0 0 0 0 0 0 0 0 0 0 0 0 0 0 0 0 0 0 0 0 0 0 0 0 0 0 0 0 0 0 0 0 0 0 0 


CELL_DATA 11
SCALARS GMDS_ID int 1
LOOKUP_TABLE default
0 1 17 23 25 26 27 28 29 30 31 

SCALARS geom_link_dim_0 int 1
LOOKUP_TABLE default
0 0 0 0 0 0 0 0 0 0 0 

SCALARS geom_link_id_0 int 1
LOOKUP_TABLE default
0 0 0 0 0 0 0 0 0 0 0 

