# vtk DataFile Version 3.0
Generated by GMDS VTK Writer

ASCII
DATASET UNSTRUCTURED_GRID
POINTS 46 float
-5 -5 -5
-5 10 -5
10 10 -5
-5 -5 10
10 10 10
10 -5 10
8.88178419700125e-16 10 -5
8.88178419700125e-16 -5 -5
8.88178419700125e-16 -5 10
8.88178419700125e-16 10 10
10 5 -5
10 5 10
0 5 10
0 5 -5
-5 5 10
-5 5 -5
5 5 -5
5 5 10
5 10 10
5 10 -5
5 -5 -5
5 -5 10
0 0 -5
0 0 10
-5 -4.44089209850063e-16 10
-5 -4.44089209850063e-16 -5
10 -4.44089209850063e-16 -5
10 -4.44089209850063e-16 10
5 0 10
5 0 -5
-5 -5 -8.88178419700125e-16
0 -5 0
0 0 -8.88178419700125e-16
-5 0 0
10 10 -8.88178419700125e-16
10 5 0
5 5 -8.88178419700125e-16
5 10 0
-5 5 0
0 5 0
0 10 0
-5 10 -8.88178419700125e-16
10 -5 -8.88178419700125e-16
5 -5 0
5 0 0
10 0 0

CELLS 16 144
8 2 10 16 19 34 35 36 37 
8 30 31 32 33 3 8 23 24 
8 0 7 22 25 30 31 32 33 
8 34 35 36 37 4 11 17 18 
8 15 13 6 1 38 39 40 41 
8 19 16 13 6 37 36 39 40 
8 37 36 39 40 18 17 12 9 
8 25 22 13 15 33 32 39 38 
8 33 32 39 38 24 23 12 14 
8 42 43 44 45 5 21 28 27 
8 26 29 16 10 45 44 36 35 
8 45 44 36 35 27 28 17 11 
8 7 20 29 22 31 43 44 32 
8 31 43 44 32 8 21 28 23 
8 22 29 16 13 32 44 36 39 
8 32 44 36 39 23 28 17 12 

CELL_TYPES 16
12 
12 
12 
12 
12 
12 
12 
12 
12 
12 
12 
12 
12 
12 
12 
12 
POINT_DATA 46
SCALARS GMDS_ID int 1
LOOKUP_TABLE default
0 1 2 4 6 7 8 9 10 11 12 13 14 15 16 17 18 19 20 21 22 23 24 25 26 27 28 29 30 31 32 33 34 35 36 37 38 39 40 41 42 43 44 45 46 47 
SCALARS geom_link_dim int 1
LOOKUP_TABLE default
0 0 0 0 0 0 0 0 0 0 0 0 1 1 0 0 1 1 0 0 0 0 1 1 0 0 0 0 1 1 0 1 0 1 0 1 0 1 1 1 1 0 0 1 1 1 
SCALARS geom_link_id int 1
LOOKUP_TABLE default
-1 -1 -1 -1 -1 -1 -1 -1 -1 -1 -1 -1 16 18 -1 -1 17 15 -1 -1 -1 -1 19 20 -1 -1 -1 -1 24 25 -1 28 0 11 -1 21 0 9 5 1 4 -1 -1 31 26 29 


CELL_DATA 16
SCALARS GMDS_ID int 1
LOOKUP_TABLE default
4 6 7 12 13 15 16 17 18 20 21 22 23 24 25 26 

SCALARS is_in int 1
LOOKUP_TABLE default
0 0 0 0 0 0 0 0 0 0 0 0 0 0 1 1 

SCALARS geom_link_dim int 1
LOOKUP_TABLE default
0 0 0 0 0 0 0 0 0 0 0 0 0 0 0 0 

SCALARS geom_link_id int 1
LOOKUP_TABLE default
0 0 0 0 0 0 0 0 0 0 0 0 0 0 0 0 

