# vtk DataFile Version 3.0
Generated by GMDS VTK Writer

ASCII
DATASET UNSTRUCTURED_GRID
POINTS 33 float
-5 10 10
8.88178419700125e-16 -5 -5
5 -5 -5
5 -5 10
10 -5 -8.88178419700125e-16
5 -5 0
5 10 0
-5 -5 -8.88178419700125e-16
-5 10 -8.88178419700125e-16
10 -5 5
5 -5 5
5 10 5
-5 -5 5
-5 10 5
0 10 0
0 -5 0
0 10 5
0 -5 5
8.88178419700125e-16 10 10
8.88178419700125e-16 -5 10
5 5 -5
5 5 0
10 5 0
5 5 5
10 5 5
0 5 -5
0 5 0
-5 5 0
-5 5 5
0 5 5
-5 5 10
0 5 10
5 5 10

CELLS 8 72
8 4 5 10 9 22 21 23 24 
8 1 15 5 2 25 26 21 20 
8 7 12 17 15 27 28 29 26 
8 27 28 29 26 8 13 16 14 
8 15 17 10 5 26 29 23 21 
8 26 29 23 21 14 16 11 6 
8 30 28 29 31 0 13 16 18 
8 19 17 10 3 31 29 23 32 

CELL_TYPES 8
12 
12 
12 
12 
12 
12 
12 
12 
POINT_DATA 33
SCALARS GMDS_ID int 1
LOOKUP_TABLE default
5 7 9 10 13 14 15 16 17 19 20 21 22 23 24 25 26 27 28 29 31 32 33 34 35 36 37 39 40 41 42 43 44 
SCALARS geom_link_dim int 1
LOOKUP_TABLE default
0 0 0 0 0 1 1 0 0 0 1 1 0 0 1 1 1 1 0 0 1 1 1 1 1 1 1 1 1 1 0 1 1 
SCALARS geom_link_id int 1
LOOKUP_TABLE default
-1 -1 -1 -1 -1 31 9 -1 -1 -1 32 7 -1 -1 4 28 3 27 -1 -1 17 10 21 8 22 18 1 5 6 2 -1 16 15 


CELL_DATA 8
SCALARS GMDS_ID int 1
LOOKUP_TABLE default
4 12 16 17 18 19 21 22 

SCALARS is_in int 1
LOOKUP_TABLE default
0 0 0 0 1 1 0 0 

SCALARS geom_link_dim int 1
LOOKUP_TABLE default
0 0 0 0 0 0 0 0 

SCALARS geom_link_id int 1
LOOKUP_TABLE default
0 0 0 0 0 0 0 0 

