# vtk DataFile Version 3.0
Generated by GMDS VTK Writer

ASCII
DATASET UNSTRUCTURED_GRID
POINTS 42 float
10 5 5
0 10 5
5 5 5
5 -5 5
10 0 5
8.88178419700125e-16 -5 10
8.88178419700125e-16 10 10
0 0 5
10 5 10
0 5 10
0 5 -5
-5 5 10
-5 5 -5
5 5 -5
5 5 10
5 10 10
0 -5 5
-5 5 5
5 -5 10
0 0 -5
0 0 10
-5 -4.44089209850063e-16 10
-5 -4.44089209850063e-16 -5
-5 0 5
10 -4.44089209850063e-16 10
5 0 10
5 0 -5
5 0 5
0 -5 0
0 0 0
-5 0 0
0 5 5
10 5 0
5 5 0
5 10 0
-5 5 0
0 5 0
0 10 0
5 10 5
5 -5 0
5 0 0
10 0 0

CELLS 12 108
8 29 40 33 36 7 27 2 31 
8 16 3 27 7 5 18 25 20 
8 41 40 33 32 4 27 2 0 
8 38 2 31 1 15 14 9 6 
8 28 39 40 29 16 3 27 7 
8 7 27 2 31 20 25 14 9 
8 4 27 2 0 24 25 14 8 
8 22 19 10 12 30 29 36 35 
8 34 33 36 37 38 2 31 1 
8 30 29 36 35 23 7 31 17 
8 23 7 31 17 21 20 9 11 
8 19 26 13 10 29 40 33 36 

CELL_TYPES 12
12 
12 
12 
12 
12 
12 
12 
12 
12 
12 
12 
12 
POINT_DATA 42
SCALARS GMDS_ID int 1
LOOKUP_TABLE default
0 6 7 8 9 10 11 12 13 14 15 16 17 18 19 20 21 22 23 24 25 26 27 28 29 30 31 32 33 34 35 36 37 38 39 40 41 42 44 45 46 47 
SCALARS geom_link_dim int 1
LOOKUP_TABLE default
1 1 1 1 1 0 0 1 0 1 1 0 0 1 1 0 1 1 0 1 1 0 0 1 0 1 1 1 1 1 1 1 1 1 1 1 1 1 1 1 1 1 
SCALARS geom_link_id int 1
LOOKUP_TABLE default
22 3 8 32 30 -1 -1 14 -1 16 18 -1 -1 17 15 -1 27 6 -1 19 20 -1 -1 13 -1 24 25 23 28 12 11 2 21 10 9 5 1 4 7 31 26 29 


CELL_DATA 12
SCALARS GMDS_ID int 1
LOOKUP_TABLE default
4 6 7 12 13 14 15 17 20 21 23 25 

SCALARS is_in int 1
LOOKUP_TABLE default
1 0 1 0 1 1 0 0 1 1 0 1 

SCALARS geom_link_dim int 1
LOOKUP_TABLE default
0 0 0 0 0 0 0 0 0 0 0 0 

SCALARS geom_link_id int 1
LOOKUP_TABLE default
-1 -1 -1 -1 -1 -1 -1 0 -1 -1 -1 0 

