# vtk DataFile Version 3.0
Generated by GMDS VTK Writer

ASCII
DATASET UNSTRUCTURED_GRID
POINTS 44 float
-5 0 0
10 10 -5
10 -5 -5
10 -5 10
10 -8.88178419700125e-16 10
10 -8.88178419700125e-16 -5
5 -5 -5
5 -5 10
5 0 10
5 0 -5
5 10 -5
10 5 -5
5 5 -5
5 5 10
10 5 5
5 5 5
5 10 5
10 0 5
5 0 5
10 -5 5
5 -5 5
-5 0 5
-5 5 5
0 0 -5
0 0 5
0 -5 5
0 0 10
0 5 -5
0 5 5
0 5 10
0 10 5
-5 5 0
0 5 0
0 0 0
10 5 0
5 5 0
5 10 0
10 10 -4.44089209850063e-16
10 0 0
5 0 0
10 -5 -4.44089209850063e-16
5 -5 0
0 -5 0
0 10 0

CELLS 10 90
8 19 17 18 20 3 4 8 7 
8 2 5 9 6 40 38 39 41 
8 38 39 35 34 17 18 15 14 
8 11 12 10 1 34 35 36 37 
8 0 31 32 33 21 22 28 24 
8 24 28 29 26 18 15 13 8 
8 42 33 39 41 25 24 18 20 
8 23 27 12 9 33 32 35 39 
8 33 32 35 39 24 28 15 18 
8 43 32 35 36 30 28 15 16 

CELL_TYPES 10
12 
12 
12 
12 
12 
12 
12 
12 
12 
12 
POINT_DATA 44
SCALARS GMDS_ID int 1
LOOKUP_TABLE default
1 2 3 7 10 11 12 13 14 15 17 19 20 21 24 25 26 28 29 30 31 32 34 37 38 39 40 42 43 44 46 48 49 50 51 52 53 54 55 56 57 58 59 61 
SCALARS geom_link_dim int 1
LOOKUP_TABLE default
1 0 0 0 0 0 0 0 1 1 0 0 1 1 1 1 1 1 1 0 1 1 1 1 1 1 1 1 1 1 1 1 1 1 1 1 1 0 1 1 0 1 1 1 
SCALARS geom_link_id int 1
LOOKUP_TABLE default
11 -1 -1 -1 -1 -1 -1 -1 24 25 -1 -1 17 15 22 8 7 30 23 -1 32 13 6 19 14 27 20 18 2 16 3 5 1 12 21 10 9 -1 29 26 -1 31 28 4 


CELL_DATA 10
SCALARS GMDS_ID int 1
LOOKUP_TABLE default
11 12 13 16 17 19 26 29 30 32 

SCALARS is_in int 1
LOOKUP_TABLE default
0 0 1 0 1 1 1 1 1 1 

SCALARS geom_link_dim int 1
LOOKUP_TABLE default
0 0 0 0 0 0 0 0 0 0 

SCALARS geom_link_id int 1
LOOKUP_TABLE default
0 0 0 0 0 0 0 0 0 0 

