# vtk DataFile Version 3.0
Generated by GMDS VTK Writer

ASCII
DATASET UNSTRUCTURED_GRID
POINTS 41 float
5 0 5
10 0 5
-5 10 10
-5 5 -5
-5 5 10
5 -5 -5
5 5 10
5 5 -5
5 10 10
0 -5 -5
0 5 10
0 5 -5
0 10 10
5 0 10
5 0 -5
0 0 -5
0 0 10
-5 -4.44089209850063e-16 -5
5 5 5
10 5 5
5 -5 5
5 10 5
0 10 5
0 5 5
-5 10 5
-5 5 5
-5 0 5
0 0 5
0 -5 5
10 0 0
5 0 0
5 5 0
10 5 0
5 -5 0
5 10 0
0 10 0
0 5 0
-5 5 0
-5 0 0
0 0 0
0 -5 0

CELLS 11 99
8 31 34 35 36 18 21 22 23 
8 29 30 31 32 1 0 18 19 
8 18 21 22 23 6 8 12 10 
8 23 22 24 25 10 12 2 4 
8 0 27 23 18 13 16 10 6 
8 17 15 11 3 38 39 36 37 
8 38 39 36 37 26 27 23 25 
8 5 9 15 14 33 40 39 30 
8 33 40 39 30 20 28 27 0 
8 14 15 11 7 30 39 36 31 
8 30 39 36 31 0 27 23 18 

CELL_TYPES 11
12 
12 
12 
12 
12 
12 
12 
12 
12 
12 
12 
POINT_DATA 41
SCALARS GMDS_ID int 1
LOOKUP_TABLE default
0 4 5 8 9 12 14 15 16 18 20 21 22 24 25 26 27 29 30 31 33 34 35 36 37 38 39 40 41 42 43 44 45 47 48 49 50 52 53 54 55 
SCALARS geom_link_dim_0 int 1
LOOKUP_TABLE default
0 0 0 0 0 0 0 0 0 0 0 0 0 0 0 0 0 0 0 0 0 0 0 0 0 0 0 0 0 0 0 0 0 0 0 0 0 0 0 0 0 
SCALARS geom_link_id_0 int 1
LOOKUP_TABLE default
0 0 0 0 0 0 0 0 0 0 0 0 0 0 0 0 0 0 0 0 0 0 0 0 0 0 0 0 0 0 0 0 0 0 0 0 0 0 0 0 0 


CELL_DATA 11
SCALARS GMDS_ID int 1
LOOKUP_TABLE default
4 9 12 14 20 22 23 24 25 26 27 

SCALARS geom_link_dim_0 int 1
LOOKUP_TABLE default
0 0 0 0 0 0 0 0 0 0 0 

SCALARS geom_link_id_0 int 1
LOOKUP_TABLE default
0 0 0 0 0 0 0 0 0 0 0 

