# vtk DataFile Version 3.0
Generated by GMDS VTK Writer

ASCII
DATASET UNSTRUCTURED_GRID
POINTS 50 float
5 -5 0
5 10 0
10 10 -5
10 -5 -5
0 0 5
5 0 5
5 0 10
0 0 10
8.88178419700125e-16 10 -5
8.88178419700125e-16 -5 -5
8.88178419700125e-16 -5 10
8.88178419700125e-16 10 10
10 10 -8.88178419700125e-16
10 -5 -8.88178419700125e-16
0 -5 0
0 10 0
-5 -5 -8.88178419700125e-16
5 -5 10
5 10 10
5 10 -5
5 -5 -5
5 10 5
5 -5 5
0 -5 5
0 10 5
10 10 5
10 -5 5
-5 -5 5
5 -8.88178419700125e-16 0
0 0 0
10 -8.88178419700125e-16 -5
10 0 0
5 0 -5
0 0 -5
10 0 5
-5 0 0
-5 0 5
5 5 0
0 5 0
0 5 5
5 5 5
0 5 10
5 5 10
10 5 -5
10 5 0
5 5 -5
0 5 -5
10 5 5
-5 5 0
-5 5 5

CELLS 17 153
8 30 31 28 32 43 44 37 45 
8 40 39 41 42 21 24 11 18 
8 3 13 0 20 30 31 28 32 
8 43 44 37 45 2 12 1 19 
8 0 14 23 22 28 29 4 5 
8 5 4 7 6 40 39 41 42 
8 37 38 39 40 1 15 24 21 
8 28 29 4 5 37 38 39 40 
8 22 23 10 17 5 4 7 6 
8 20 0 14 9 32 28 29 33 
8 0 13 26 22 28 31 34 5 
8 14 16 27 23 29 35 36 4 
8 32 28 29 33 45 37 38 46 
8 45 37 38 46 19 1 15 8 
8 28 31 34 5 37 44 47 40 
8 37 44 47 40 1 12 25 21 
8 29 35 36 4 38 48 49 39 

CELL_TYPES 17
12 
12 
12 
12 
12 
12 
12 
12 
12 
12 
12 
12 
12 
12 
12 
12 
12 
POINT_DATA 50
SCALARS GMDS_ID int 1
LOOKUP_TABLE default
0 1 2 3 4 5 6 7 8 9 10 11 12 13 14 15 16 18 19 20 21 22 23 24 25 26 27 28 30 31 32 33 34 35 36 37 38 39 40 41 42 43 44 45 46 47 48 49 50 51 
SCALARS geom_link_dim int 1
LOOKUP_TABLE default
1 1 0 0 1 1 1 1 0 0 0 0 0 0 1 1 0 0 0 0 0 1 1 1 1 0 0 0 0 1 0 1 1 1 1 1 1 0 1 1 1 1 1 0 1 1 1 1 1 1 
SCALARS geom_link_id int 1
LOOKUP_TABLE default
31 9 -1 -1 14 23 24 20 -1 -1 -1 -1 -1 -1 28 4 -1 -1 -1 -1 -1 7 32 27 3 -1 -1 -1 0 12 -1 29 25 19 30 11 13 0 1 2 8 16 15 -1 21 17 18 22 5 6 


CELL_DATA 17
SCALARS GMDS_ID int 1
LOOKUP_TABLE default
0 1 2 3 5 6 7 9 10 12 14 16 18 19 20 21 22 

SCALARS is_in int 1
LOOKUP_TABLE default
0 0 0 0 1 1 1 1 0 0 0 0 1 0 1 0 1 

SCALARS geom_link_dim int 1
LOOKUP_TABLE default
0 0 0 0 0 0 0 0 0 0 0 0 0 0 0 0 0 

SCALARS geom_link_id int 1
LOOKUP_TABLE default
0 0 0 0 0 0 0 0 0 0 0 0 0 0 0 0 0 

