# vtk DataFile Version 3.0
Generated by GMDS VTK Writer

ASCII
DATASET UNSTRUCTURED_GRID
POINTS 43 float
-5 -5 -5
-5 10 -5
10 10 -5
10 -5 -5
-5 10 10
8.88178419700125e-16 10 -5
8.88178419700125e-16 -5 -5
5 10 -5
5 -5 -5
5 -5 10
10 10 -8.88178419700125e-16
10 -5 -8.88178419700125e-16
5 -5 0
5 10 0
-5 -5 -8.88178419700125e-16
-5 10 -8.88178419700125e-16
10 10 5
10 -5 5
5 -5 5
5 10 5
-5 -5 5
-5 10 5
0 10 0
0 -5 0
0 10 5
0 -5 5
8.88178419700125e-16 10 10
8.88178419700125e-16 -5 10
10 5 -5
5 5 -5
5 5 0
10 5 0
5 5 5
10 5 5
0 5 -5
0 5 0
-5 5 -5
-5 5 0
-5 5 5
0 5 5
-5 5 10
0 5 10
5 5 10

CELLS 14 126
8 11 12 18 17 31 30 32 33 
8 28 29 30 31 2 7 13 10 
8 3 8 12 11 28 29 30 31 
8 31 30 32 33 10 13 19 16 
8 6 23 12 8 34 35 30 29 
8 34 35 30 29 5 22 13 7 
8 0 14 23 6 36 37 35 34 
8 36 37 35 34 1 15 22 5 
8 14 20 25 23 37 38 39 35 
8 37 38 39 35 15 21 24 22 
8 23 25 18 12 35 39 32 30 
8 35 39 32 30 22 24 19 13 
8 40 38 39 41 4 21 24 26 
8 27 25 18 9 41 39 32 42 

CELL_TYPES 14
12 
12 
12 
12 
12 
12 
12 
12 
12 
12 
12 
12 
12 
12 
POINT_DATA 43
SCALARS GMDS_ID int 1
LOOKUP_TABLE default
0 1 2 3 5 6 7 8 9 10 12 13 14 15 16 17 18 19 20 21 22 23 24 25 26 27 28 29 30 31 32 33 34 35 36 37 38 39 40 41 42 43 44 
SCALARS geom_link_dim int 1
LOOKUP_TABLE default
0 0 0 0 0 0 0 0 0 0 0 0 1 1 0 0 0 0 1 1 0 0 1 1 1 1 0 0 0 1 0 1 1 1 1 0 0 1 1 1 0 1 1 
SCALARS geom_link_id int 1
LOOKUP_TABLE default
-1 -1 -1 -1 -1 -1 -1 -1 -1 -1 -1 -1 31 9 -1 -1 -1 -1 32 7 -1 -1 4 28 3 27 -1 -1 -1 17 0 21 8 22 18 0 -1 5 6 2 -1 16 15 


CELL_DATA 14
SCALARS GMDS_ID int 1
LOOKUP_TABLE default
4 6 7 11 12 13 14 15 16 17 18 19 21 22 

SCALARS is_in int 1
LOOKUP_TABLE default
0 0 0 0 0 0 0 0 0 0 1 1 0 0 

SCALARS geom_link_dim int 1
LOOKUP_TABLE default
0 0 0 0 0 0 0 0 0 0 0 0 0 0 

SCALARS geom_link_id int 1
LOOKUP_TABLE default
0 0 0 0 0 0 0 0 0 0 0 0 0 0 

