# vtk DataFile Version 3.0
Generated by GMDS VTK Writer

ASCII
DATASET UNSTRUCTURED_GRID
POINTS 35 float
-5 10 10
8.88178419700125e-16 -5 -5
5 -5 -5
5 -5 10
10 10 -8.88178419700125e-16
10 -5 -8.88178419700125e-16
5 -5 0
5 10 0
-5 -5 -8.88178419700125e-16
-5 10 -8.88178419700125e-16
10 10 5
10 -5 5
5 -5 5
5 10 5
-5 -5 5
-5 10 5
0 10 0
0 -5 0
0 10 5
0 -5 5
8.88178419700125e-16 10 10
8.88178419700125e-16 -5 10
5 5 -5
5 5 0
10 5 0
5 5 5
10 5 5
0 5 -5
0 5 0
-5 5 0
-5 5 5
0 5 5
-5 5 10
0 5 10
5 5 10

CELLS 9 81
8 5 6 12 11 24 23 25 26 
8 24 23 25 26 4 7 13 10 
8 1 17 6 2 27 28 23 22 
8 8 14 19 17 29 30 31 28 
8 29 30 31 28 9 15 18 16 
8 17 19 12 6 28 31 25 23 
8 28 31 25 23 16 18 13 7 
8 32 30 31 33 0 15 18 20 
8 21 19 12 3 33 31 25 34 

CELL_TYPES 9
12 
12 
12 
12 
12 
12 
12 
12 
12 
POINT_DATA 35
SCALARS GMDS_ID int 1
LOOKUP_TABLE default
5 7 9 10 12 13 14 15 16 17 18 19 20 21 22 23 24 25 26 27 28 29 31 32 33 34 35 36 37 39 40 41 42 43 44 
SCALARS geom_link_dim int 1
LOOKUP_TABLE default
0 0 0 0 0 0 1 1 0 0 0 0 1 1 0 0 1 1 1 1 0 0 1 1 1 1 1 1 1 1 1 1 0 1 1 
SCALARS geom_link_id int 1
LOOKUP_TABLE default
-1 -1 -1 -1 -1 -1 31 9 -1 -1 -1 -1 32 7 -1 -1 4 28 3 27 -1 -1 17 10 21 8 22 18 1 5 6 2 -1 16 15 


CELL_DATA 9
SCALARS GMDS_ID int 1
LOOKUP_TABLE default
4 11 12 16 17 18 19 21 22 

SCALARS is_in int 1
LOOKUP_TABLE default
0 0 0 0 0 1 1 0 0 

SCALARS geom_link_dim int 1
LOOKUP_TABLE default
0 0 0 0 0 0 0 0 0 

SCALARS geom_link_id int 1
LOOKUP_TABLE default
0 0 0 0 0 0 0 0 0 

