# vtk DataFile Version 3.0
Generated by GMDS VTK Writer

ASCII
DATASET UNSTRUCTURED_GRID
POINTS 34 float
5 0 5
10 0 5
-5 5 -5
5 5 10
5 5 -5
0 5 10
0 5 -5
5 0 10
5 0 -5
0 0 -5
0 0 10
-5 -4.44089209850063e-16 -5
5 5 5
10 5 5
5 -5 5
5 10 5
0 10 5
0 5 5
-5 5 5
-5 0 5
0 0 5
0 -5 5
10 0 0
5 0 0
5 5 0
10 5 0
5 -5 0
5 10 0
0 10 0
0 5 0
-5 5 0
-5 0 0
0 0 0
0 -5 0

CELLS 8 72
8 24 27 28 29 12 15 16 17 
8 22 23 24 25 1 0 12 13 
8 0 20 17 12 7 10 5 3 
8 11 9 6 2 31 32 29 30 
8 31 32 29 30 19 20 17 18 
8 26 33 32 23 14 21 20 0 
8 8 9 6 4 23 32 29 24 
8 23 32 29 24 0 20 17 12 

CELL_TYPES 8
12 
12 
12 
12 
12 
12 
12 
12 
POINT_DATA 34
SCALARS GMDS_ID int 1
LOOKUP_TABLE default
0 4 8 14 15 20 21 24 25 26 27 29 30 31 33 34 35 36 38 39 40 41 42 43 44 45 47 48 49 50 52 53 54 55 
SCALARS geom_link_dim_0 int 1
LOOKUP_TABLE default
0 0 0 0 0 0 0 0 0 0 0 0 0 0 0 0 0 0 0 0 0 0 0 0 0 0 0 0 0 0 0 0 0 0 
SCALARS geom_link_id_0 int 1
LOOKUP_TABLE default
0 0 0 0 0 0 0 0 0 0 0 0 0 0 0 0 0 0 0 0 0 0 0 0 0 0 0 0 0 0 0 0 0 0 


CELL_DATA 8
SCALARS GMDS_ID int 1
LOOKUP_TABLE default
4 9 20 22 23 25 26 27 

SCALARS geom_link_dim_0 int 1
LOOKUP_TABLE default
0 0 0 0 0 0 0 0 

SCALARS geom_link_id_0 int 1
LOOKUP_TABLE default
0 0 0 0 0 0 0 0 

