# vtk DataFile Version 3.0
Generated by GMDS VTK Writer

ASCII
DATASET UNSTRUCTURED_GRID
POINTS 34 float
10 10 10
10 -5 10
8.88178419700125e-16 -5 10
8.88178419700125e-16 10 10
10 5 10
0 5 10
0 5 -5
-5 5 10
-5 5 -5
5 5 -5
5 5 10
5 10 10
5 -5 10
0 0 -5
0 0 10
-5 -4.44089209850063e-16 10
-5 -4.44089209850063e-16 -5
10 -4.44089209850063e-16 10
5 0 10
5 0 -5
0 -5 0
0 0 0
-5 0 0
10 10 -8.88178419700125e-16
10 5 0
5 5 0
5 10 0
-5 5 0
0 5 0
0 10 0
10 -5 -8.88178419700125e-16
5 -5 0
5 0 0
10 0 0

CELLS 9 81
8 23 24 25 26 0 4 10 11 
8 26 25 28 29 11 10 5 3 
8 16 13 6 8 22 21 28 27 
8 22 21 28 27 15 14 5 7 
8 30 31 32 33 1 12 18 17 
8 33 32 25 24 17 18 10 4 
8 20 31 32 21 2 12 18 14 
8 13 19 9 6 21 32 25 28 
8 21 32 25 28 14 18 10 5 

CELL_TYPES 9
12 
12 
12 
12 
12 
12 
12 
12 
12 
POINT_DATA 34
SCALARS GMDS_ID int 1
LOOKUP_TABLE default
6 7 10 11 13 14 15 16 17 18 19 20 23 24 25 26 27 29 30 31 33 34 35 36 37 38 39 40 41 42 44 45 46 47 
SCALARS geom_link_dim int 1
LOOKUP_TABLE default
0 0 0 0 0 1 1 0 0 1 1 0 0 1 1 0 0 0 1 1 1 1 1 0 1 1 1 1 1 1 0 1 1 1 
SCALARS geom_link_id int 1
LOOKUP_TABLE default
-1 -1 -1 -1 -1 16 18 -1 -1 17 15 -1 -1 19 20 -1 -1 -1 24 25 28 12 11 -1 21 10 9 5 1 4 -1 31 26 29 


CELL_DATA 9
SCALARS GMDS_ID int 1
LOOKUP_TABLE default
12 16 17 18 20 22 24 25 26 

SCALARS is_in int 1
LOOKUP_TABLE default
0 0 0 0 0 0 0 1 1 

SCALARS geom_link_dim int 1
LOOKUP_TABLE default
0 0 0 0 0 0 0 0 0 

SCALARS geom_link_id int 1
LOOKUP_TABLE default
0 0 0 0 0 0 0 0 0 

