# vtk DataFile Version 3.0
Generated by GMDS VTK Writer

ASCII
DATASET UNSTRUCTURED_GRID
POINTS 32 float
5 -5 0
5 5 10
5 5 -5
5 5 0
10 5 0
-5 5 0
5 10 0
0 5 -5
0 5 0
0 -5 0
0 5 10
0 10 0
10 0 0
5 0 0
5 0 10
0 0 -5
0 0 0
5 0 -5
-5 0 0
0 0 10
10 0 5
5 0 5
5 5 5
10 5 5
5 -5 5
-5 5 5
0 5 5
0 10 5
5 10 5
0 -5 5
0 0 5
-5 0 5

CELLS 7 63
8 20 21 22 23 12 13 3 4 
8 15 16 13 17 7 8 3 2 
8 27 26 22 28 11 8 3 6 
8 31 30 26 25 18 16 8 5 
8 24 29 30 21 0 9 16 13 
8 14 19 10 1 21 30 26 22 
8 21 30 26 22 13 16 8 3 

CELL_TYPES 7
12 
12 
12 
12 
12 
12 
12 
POINT_DATA 32
SCALARS GMDS_ID int 1
LOOKUP_TABLE default
2 14 15 18 19 21 22 25 26 27 28 31 33 34 35 37 38 39 41 44 45 46 47 48 50 52 53 54 55 57 58 59 
SCALARS geom_link_dim_0 int 1
LOOKUP_TABLE default
0 0 0 0 0 0 0 0 0 0 0 0 0 0 0 0 0 0 0 0 0 0 0 0 0 0 0 0 0 0 0 0 
SCALARS geom_link_id_0 int 1
LOOKUP_TABLE default
0 0 0 0 0 0 0 0 0 0 0 0 0 0 0 0 0 0 0 0 0 0 0 0 0 0 0 0 0 0 0 0 


CELL_DATA 7
SCALARS GMDS_ID int 1
LOOKUP_TABLE default
0 1 23 27 29 30 31 

SCALARS geom_link_dim_0 int 1
LOOKUP_TABLE default
0 0 0 0 0 0 0 

SCALARS geom_link_id_0 int 1
LOOKUP_TABLE default
0 0 0 0 0 0 0 

