# vtk DataFile Version 3.0
Generated by GMDS VTK Writer

ASCII
DATASET UNSTRUCTURED_GRID
POINTS 40 float
-5 0 0
10 10 -5
10 -5 -5
10 -8.88178419700125e-16 -5
5 -5 -5
5 0 10
5 0 -5
5 10 -5
10 5 -5
5 5 -5
5 5 10
10 5 5
5 5 5
5 10 5
10 0 5
5 0 5
5 -5 5
-5 0 5
-5 5 5
0 0 -5
0 0 5
0 -5 5
0 0 10
0 5 -5
0 5 5
0 5 10
0 10 5
-5 5 0
0 5 0
0 0 0
10 5 0
5 5 0
5 10 0
10 10 -4.44089209850063e-16
10 0 0
5 0 0
10 -5 -4.44089209850063e-16
5 -5 0
0 -5 0
0 10 0

CELLS 78 234
2 29 28
2 9 7
2 30 11
2 2 4
2 6 9
2 19 6
2 12 10
2 2 3
2 8 1
2 27 28
2 3 6
2 0 29
2 20 21
2 4 6
2 27 18
2 1 7
2 23 28
2 17 20
2 5 10
2 20 15
2 8 9
2 19 29
2 21 16
2 0 27
2 11 12
2 13 12
2 15 5
2 14 15
2 15 12
2 14 11
2 16 15
2 8 30
2 9 31
2 29 20
2 17 18
2 28 24
2 22 5
2 22 20
2 23 9
2 18 24
2 24 12
2 19 23
2 20 24
2 25 10
2 25 24
2 22 25
2 0 17
2 26 13
2 24 26
2 31 12
2 7 32
2 32 13
2 1 33
2 30 31
2 32 31
2 33 32
2 33 30
2 3 34
2 34 14
2 6 35
2 35 15
2 34 35
2 35 31
2 34 30
2 2 36
2 4 37
2 37 16
2 36 34
2 37 35
2 36 37
2 38 21
2 38 29
2 35 29
2 37 38
2 31 28
2 39 26
2 28 39
2 32 39

CELL_TYPES 78
3 
3 
3 
3 
3 
3 
3 
3 
3 
3 
3 
3 
3 
3 
3 
3 
3 
3 
3 
3 
3 
3 
3 
3 
3 
3 
3 
3 
3 
3 
3 
3 
3 
3 
3 
3 
3 
3 
3 
3 
3 
3 
3 
3 
3 
3 
3 
3 
3 
3 
3 
3 
3 
3 
3 
3 
3 
3 
3 
3 
3 
3 
3 
3 
3 
3 
3 
3 
3 
3 
3 
3 
3 
3 
3 
3 
3 
3 
POINT_DATA 40
SCALARS GMDS_ID int 1
LOOKUP_TABLE default
1 2 3 11 12 14 15 17 19 20 21 24 25 26 28 29 31 32 34 37 38 39 40 42 43 44 46 48 49 50 51 52 53 54 55 56 57 58 59 61 
SCALARS geom_link_dim int 1
LOOKUP_TABLE default
1 0 0 0 0 1 1 0 0 1 1 1 1 1 1 1 1 1 1 1 1 1 1 1 1 1 1 1 1 1 1 1 1 0 1 1 0 1 1 1 
SCALARS geom_link_id int 1
LOOKUP_TABLE default
11 -1 -1 -1 -1 24 25 -1 -1 17 15 22 8 7 30 23 32 13 6 19 14 27 20 18 2 16 3 5 1 12 21 10 9 -1 29 26 -1 31 28 4 


CELL_DATA 78
SCALARS GMDS_ID int 1
LOOKUP_TABLE default
0 3 4 6 7 10 15 18 23 25 26 27 30 31 33 34 35 37 39 41 42 49 50 51 54 55 61 62 63 64 70 76 78 81 82 85 88 91 95 96 97 98 100 102 103 104 105 108 110 116 117 118 119 121 122 123 124 125 126 127 128 129 130 131 132 134 135 136 137 138 140 141 142 143 148 150 151 152 

SCALARS geom_link_dim int 1
LOOKUP_TABLE default
2 0 2 0 2 2 2 0 0 2 0 2 2 0 2 0 2 2 2 2 0 2 2 2 2 2 2 2 2 2 2 0 2 2 2 2 2 2 2 2 2 2 2 2 2 2 2 2 2 2 0 2 0 2 2 0 0 0 2 2 2 2 2 2 0 0 2 0 2 0 2 2 2 2 2 2 2 2 

SCALARS geom_link_id int 1
LOOKUP_TABLE default
2 0 22 0 53 47 35 0 0 15 0 27 45 0 48 0 18 19 36 1 0 26 17 60 38 29 28 20 10 46 34 0 24 8 58 9 49 25 41 23 5 50 11 37 44 31 54 30 42 3 0 32 0 39 33 0 0 0 57 13 7 14 6 56 0 0 59 0 16 0 40 52 4 55 12 43 51 21 

