# vtk DataFile Version 3.0
Generated by GMDS VTK Writer

ASCII
DATASET UNSTRUCTURED_GRID
POINTS 34 float
5 0 -5
5 0 10
0 0 10
5 0 5
-5 0 5
-5 0 0
5 -5 10
0 0 -5
5 -5 0
5 10 0
10 0 5
5 -5 5
5 10 5
0 10 0
0 -5 0
0 10 5
0 -5 5
5 0 0
8.88178419700125e-16 -5 10
0 0 5
5 5 -5
5 5 0
10 5 0
5 5 5
10 5 5
0 5 -5
0 5 0
0 0 0
-5 5 0
-5 5 5
0 5 5
10 0 0
0 5 10
5 5 10

CELLS 65 195
2 7 0
2 27 19
2 14 8
2 11 6
2 0 20
2 10 24
2 3 19
2 4 29
2 19 30
2 5 28
2 5 27
2 8 11
2 0 17
2 31 10
2 27 26
2 4 19
2 13 9
2 17 3
2 21 9
2 9 12
2 1 3
2 1 2
2 10 3
2 6 1
2 3 23
2 7 27
2 15 12
2 16 11
2 13 15
2 14 16
2 1 33
2 18 2
2 18 6
2 11 3
2 18 16
2 16 19
2 20 21
2 22 21
2 23 12
2 31 17
2 21 23
2 24 23
2 22 24
2 17 27
2 26 13
2 25 26
2 21 26
2 25 20
2 7 25
2 5 4
2 28 26
2 14 27
2 30 15
2 28 29
2 29 30
2 26 30
2 23 30
2 2 32
2 8 17
2 31 22
2 30 32
2 17 21
2 19 2
2 33 23
2 33 32

CELL_TYPES 65
3 
3 
3 
3 
3 
3 
3 
3 
3 
3 
3 
3 
3 
3 
3 
3 
3 
3 
3 
3 
3 
3 
3 
3 
3 
3 
3 
3 
3 
3 
3 
3 
3 
3 
3 
3 
3 
3 
3 
3 
3 
3 
3 
3 
3 
3 
3 
3 
3 
3 
3 
3 
3 
3 
3 
3 
3 
3 
3 
3 
3 
3 
3 
3 
3 
POINT_DATA 34
SCALARS GMDS_ID int 1
LOOKUP_TABLE default
0 1 3 5 6 8 10 12 14 15 18 20 21 24 25 26 27 28 29 30 31 32 33 34 35 36 37 38 39 40 41 42 43 44 
SCALARS geom_link_dim int 1
LOOKUP_TABLE default
1 1 1 1 1 1 0 1 1 1 1 1 1 1 1 1 1 1 0 1 1 1 1 1 1 1 1 1 1 1 1 1 1 1 
SCALARS geom_link_id int 1
LOOKUP_TABLE default
25 24 20 23 13 11 -1 19 31 9 30 32 7 4 28 3 27 26 -1 14 17 10 21 8 22 18 1 12 5 6 2 29 16 15 


CELL_DATA 65
SCALARS GMDS_ID int 1
LOOKUP_TABLE default
3 5 7 8 9 11 12 14 16 17 19 21 26 31 32 34 35 36 38 39 40 41 44 46 48 49 54 56 57 59 61 62 63 64 66 67 68 69 72 74 75 76 77 79 81 82 83 84 85 86 90 91 95 96 97 98 99 100 101 103 105 106 108 109 110 

SCALARS geom_link_dim int 1
LOOKUP_TABLE default
2 2 2 0 2 2 0 2 2 2 2 2 2 2 2 2 2 2 2 2 2 2 2 0 2 2 2 2 2 2 2 0 0 2 0 2 2 2 2 2 2 2 2 2 2 2 2 2 2 2 2 2 2 2 2 2 2 2 2 2 2 2 2 2 2 

SCALARS geom_link_id int 1
LOOKUP_TABLE default
47 8 55 0 53 46 0 58 11 60 27 59 13 57 2 19 21 7 33 32 28 49 20 0 10 26 30 17 43 40 36 0 0 34 0 45 24 39 29 14 3 38 22 4 51 18 12 41 50 54 15 52 42 48 23 9 5 31 16 56 44 6 25 35 37 

