# vtk DataFile Version 3.0
Generated by GMDS VTK Writer

ASCII
DATASET UNSTRUCTURED_GRID
POINTS 32 float
5 -5 0
5 5 10
5 5 -5
5 5 0
10 5 0
-5 5 0
5 10 0
0 5 -5
0 5 0
0 -5 0
0 5 10
0 10 0
10 0 0
5 0 0
5 0 10
0 0 -5
0 0 0
5 0 -5
-5 0 0
0 0 10
10 0 5
5 0 5
5 5 5
10 5 5
5 -5 5
-5 5 5
0 5 5
0 10 5
5 10 5
0 -5 5
0 0 5
-5 0 5

CELLS 60 180
2 4 3
2 20 12
2 7 2
2 2 3
2 0 13
2 1 22
2 5 8
2 14 21
2 22 3
2 8 3
2 23 22
2 23 4
2 13 3
2 9 0
2 14 1
2 21 13
2 13 12
2 23 20
2 6 3
2 12 4
2 7 8
2 22 21
2 10 1
2 21 20
2 11 6
2 8 11
2 15 7
2 9 16
2 16 8
2 17 2
2 15 16
2 13 16
2 13 17
2 17 15
2 18 5
2 18 16
2 19 10
2 14 19
2 24 0
2 24 21
2 25 5
2 10 26
2 26 8
2 27 11
2 25 26
2 26 27
2 28 6
2 22 26
2 28 22
2 28 27
2 29 9
2 19 30
2 30 16
2 31 18
2 29 30
2 31 30
2 26 30
2 25 31
2 24 29
2 21 30

CELL_TYPES 60
3 
3 
3 
3 
3 
3 
3 
3 
3 
3 
3 
3 
3 
3 
3 
3 
3 
3 
3 
3 
3 
3 
3 
3 
3 
3 
3 
3 
3 
3 
3 
3 
3 
3 
3 
3 
3 
3 
3 
3 
3 
3 
3 
3 
3 
3 
3 
3 
3 
3 
3 
3 
3 
3 
3 
3 
3 
3 
3 
3 
POINT_DATA 32
SCALARS GMDS_ID int 1
LOOKUP_TABLE default
2 14 15 18 19 21 22 25 26 27 28 31 33 34 35 37 38 39 41 44 45 46 47 48 50 52 53 54 55 57 58 59 
SCALARS geom_link_dim_0 int 1
LOOKUP_TABLE default
0 0 0 0 0 0 0 0 0 0 0 0 0 0 0 0 0 0 0 0 0 0 0 0 0 0 0 0 0 0 0 0 
SCALARS geom_link_id_0 int 1
LOOKUP_TABLE default
0 0 0 0 0 0 0 0 0 0 0 0 0 0 0 0 0 0 0 0 0 0 0 0 0 0 0 0 0 0 0 0 


CELL_DATA 60
SCALARS GMDS_ID int 1
LOOKUP_TABLE default
0 1 9 10 19 20 21 24 26 30 32 34 36 37 38 39 44 46 51 52 55 56 59 63 68 70 80 81 82 84 85 86 87 88 92 94 103 107 111 113 118 119 120 122 124 125 128 129 130 131 135 136 137 139 141 142 144 145 146 147 

SCALARS geom_link_dim_0 int 1
LOOKUP_TABLE default
0 0 0 0 0 0 0 0 0 0 0 0 0 0 0 0 0 0 0 0 0 0 0 0 0 0 0 0 0 0 0 0 0 0 0 0 0 0 0 0 0 0 0 0 0 0 0 0 0 0 0 0 0 0 0 0 0 0 0 0 

SCALARS geom_link_id_0 int 1
LOOKUP_TABLE default
0 0 0 0 0 0 0 0 0 0 0 0 0 0 0 0 0 0 0 0 0 0 0 0 0 0 0 0 0 0 0 0 0 0 0 0 0 0 0 0 0 0 0 0 0 0 0 0 0 0 0 0 0 0 0 0 0 0 0 0 

