# vtk DataFile Version 3.0
Generated by GMDS VTK Writer

ASCII
DATASET UNSTRUCTURED_GRID
POINTS 52 float
5 0 5
-5 10 -5
10 -5 -5
10 0 5
-5 10 10
10 -4.44089209850063e-16 -5
-5 5 -5
-5 5 10
5 -5 -5
5 -5 10
5 5 10
5 5 -5
5 10 10
5 10 -5
0 -5 -5
0 -5 10
0 5 10
0 5 -5
0 10 10
0 10 -5
5 0 10
5 0 -5
0 0 -5
0 0 10
-5 -4.44089209850063e-16 10
-5 -4.44089209850063e-16 -5
5 5 5
10 5 5
10 -5 5
5 -5 5
5 10 5
0 10 5
0 5 5
-5 10 5
-5 5 5
-5 0 5
0 0 5
0 -5 5
10 0 0
5 0 0
5 5 0
10 5 0
10 -5 -4.44089209850063e-16
5 -5 0
5 10 0
0 10 0
0 5 -4.44089209850063e-16
-5 10 -4.44089209850063e-16
-5 5 0
-5 0 0
0 0 0
0 -5 0

CELLS 111 333
2 8 14
2 16 7
2 40 26
2 2 8
2 10 16
2 21 39
2 27 26
2 6 1
2 26 0
2 7 4
2 9 20
2 26 10
2 2 5
2 38 41
2 9 15
2 38 3
2 21 11
2 39 0
2 11 40
2 40 39
2 3 0
2 8 21
2 20 10
2 12 10
2 41 27
2 13 11
2 11 17
2 17 6
2 5 38
2 3 27
2 41 40
2 12 18
2 18 4
2 13 19
2 19 1
2 16 18
2 38 39
2 17 19
2 5 21
2 14 22
2 22 17
2 15 23
2 23 16
2 0 20
2 24 7
2 25 6
2 2 42
2 24 23
2 42 28
2 25 22
2 20 23
2 21 22
2 29 9
2 28 29
2 29 0
2 28 3
2 30 12
2 31 18
2 32 16
2 26 30
2 30 31
2 32 31
2 26 32
2 33 4
2 34 7
2 33 31
2 33 34
2 34 32
2 35 24
2 36 23
2 36 35
2 32 36
2 34 35
2 37 15
2 29 37
2 37 36
2 0 36
2 8 43
2 43 29
2 42 43
2 43 39
2 42 38
2 13 44
2 44 30
2 19 45
2 45 31
2 17 46
2 46 32
2 40 44
2 44 45
2 46 45
2 40 46
2 1 47
2 47 33
2 6 48
2 48 34
2 47 45
2 47 48
2 48 46
2 25 49
2 49 35
2 22 50
2 50 36
2 50 49
2 46 50
2 48 49
2 14 51
2 51 37
2 43 51
2 51 50
2 39 50

CELL_TYPES 111
3 
3 
3 
3 
3 
3 
3 
3 
3 
3 
3 
3 
3 
3 
3 
3 
3 
3 
3 
3 
3 
3 
3 
3 
3 
3 
3 
3 
3 
3 
3 
3 
3 
3 
3 
3 
3 
3 
3 
3 
3 
3 
3 
3 
3 
3 
3 
3 
3 
3 
3 
3 
3 
3 
3 
3 
3 
3 
3 
3 
3 
3 
3 
3 
3 
3 
3 
3 
3 
3 
3 
3 
3 
3 
3 
3 
3 
3 
3 
3 
3 
3 
3 
3 
3 
3 
3 
3 
3 
3 
3 
3 
3 
3 
3 
3 
3 
3 
3 
3 
3 
3 
3 
3 
3 
3 
3 
3 
3 
3 
3 
POINT_DATA 52
SCALARS GMDS_ID int 1
LOOKUP_TABLE default
0 1 3 4 5 6 8 9 12 13 14 15 16 17 18 19 20 21 22 23 24 25 26 27 28 29 30 31 32 33 34 35 36 37 38 39 40 41 42 43 44 45 46 47 48 49 50 51 52 53 54 55 
SCALARS geom_link_dim_0 int 1
LOOKUP_TABLE default
0 0 0 0 0 0 0 0 0 0 0 0 0 0 0 0 0 0 0 0 0 0 0 0 0 0 0 0 0 0 0 0 0 0 0 0 0 0 0 0 0 0 0 0 0 0 0 0 0 0 0 0 
SCALARS geom_link_id_0 int 1
LOOKUP_TABLE default
0 0 0 0 0 0 0 0 0 0 0 0 0 0 0 0 0 0 0 0 0 0 0 0 0 0 0 0 0 0 0 0 0 0 0 0 0 0 0 0 0 0 0 0 0 0 0 0 0 0 0 0 


CELL_DATA 111
SCALARS GMDS_ID int 1
LOOKUP_TABLE default
1 3 4 6 7 11 12 13 14 15 17 18 19 20 21 22 25 27 28 30 31 33 35 36 37 38 39 40 41 42 43 45 46 47 48 49 50 51 52 53 54 55 56 57 58 60 61 62 63 64 65 66 69 70 71 72 74 76 78 79 80 81 82 84 86 87 88 89 91 93 94 95 96 98 99 100 101 102 103 104 105 106 107 108 109 110 111 112 113 114 115 116 117 118 119 120 121 122 123 124 125 126 127 128 129 130 131 132 133 134 135 

SCALARS geom_link_dim_0 int 1
LOOKUP_TABLE default
0 0 0 0 0 0 0 0 0 0 0 0 0 0 0 0 0 0 0 0 0 0 0 0 0 0 0 0 0 0 0 0 0 0 0 0 0 0 0 0 0 0 0 0 0 0 0 0 0 0 0 0 0 0 0 0 0 0 0 0 0 0 0 0 0 0 0 0 0 0 0 0 0 0 0 0 0 0 0 0 0 0 0 0 0 0 0 0 0 0 0 0 0 0 0 0 0 0 0 0 0 0 0 0 0 0 0 0 0 0 0 

SCALARS geom_link_id_0 int 1
LOOKUP_TABLE default
0 0 0 0 0 0 0 0 0 0 0 0 0 0 0 0 0 0 0 0 0 0 0 0 0 0 0 0 0 0 0 0 0 0 0 0 0 0 0 0 0 0 0 0 0 0 0 0 0 0 0 0 0 0 0 0 0 0 0 0 0 0 0 0 0 0 0 0 0 0 0 0 0 0 0 0 0 0 0 0 0 0 0 0 0 0 0 0 0 0 0 0 0 0 0 0 0 0 0 0 0 0 0 0 0 0 0 0 0 0 0 

