# vtk DataFile Version 3.0
Generated by GMDS VTK Writer

ASCII
DATASET UNSTRUCTURED_GRID
POINTS 41 float
5 0 5
10 0 5
-5 10 10
-5 5 -5
-5 5 10
5 -5 -5
5 5 10
5 5 -5
5 10 10
0 -5 -5
0 5 10
0 5 -5
0 10 10
5 0 10
5 0 -5
0 0 -5
0 0 10
-5 -4.44089209850063e-16 -5
5 5 5
10 5 5
5 -5 5
5 10 5
0 10 5
0 5 5
-5 10 5
-5 5 5
-5 0 5
0 0 5
0 -5 5
10 0 0
5 0 0
5 5 0
10 5 0
5 -5 0
5 10 0
0 10 0
0 5 0
-5 5 0
-5 0 0
0 0 0
0 -5 0

CELLS 82 246
2 5 9
2 10 4
2 31 18
2 6 10
2 14 30
2 19 18
2 18 0
2 4 2
2 18 6
2 29 32
2 29 1
2 14 7
2 30 0
2 7 31
2 31 30
2 1 0
2 5 14
2 13 6
2 8 6
2 32 19
2 7 11
2 11 3
2 1 19
2 32 31
2 8 12
2 12 2
2 10 12
2 29 30
2 9 15
2 15 11
2 16 10
2 0 13
2 17 3
2 17 15
2 13 16
2 14 15
2 20 0
2 21 8
2 22 12
2 23 10
2 18 21
2 21 22
2 23 22
2 18 23
2 24 2
2 25 4
2 24 22
2 24 25
2 25 23
2 27 16
2 27 26
2 23 27
2 25 26
2 20 28
2 28 27
2 0 27
2 5 33
2 33 20
2 33 30
2 34 21
2 35 22
2 11 36
2 36 23
2 31 34
2 34 35
2 36 35
2 31 36
2 3 37
2 37 25
2 37 36
2 17 38
2 38 26
2 15 39
2 39 27
2 39 38
2 36 39
2 37 38
2 9 40
2 40 28
2 33 40
2 40 39
2 30 39

CELL_TYPES 82
3 
3 
3 
3 
3 
3 
3 
3 
3 
3 
3 
3 
3 
3 
3 
3 
3 
3 
3 
3 
3 
3 
3 
3 
3 
3 
3 
3 
3 
3 
3 
3 
3 
3 
3 
3 
3 
3 
3 
3 
3 
3 
3 
3 
3 
3 
3 
3 
3 
3 
3 
3 
3 
3 
3 
3 
3 
3 
3 
3 
3 
3 
3 
3 
3 
3 
3 
3 
3 
3 
3 
3 
3 
3 
3 
3 
3 
3 
3 
3 
3 
3 
POINT_DATA 41
SCALARS GMDS_ID int 1
LOOKUP_TABLE default
0 4 5 8 9 12 14 15 16 18 20 21 22 24 25 26 27 29 30 31 33 34 35 36 37 38 39 40 41 42 43 44 45 47 48 49 50 52 53 54 55 
SCALARS geom_link_dim_0 int 1
LOOKUP_TABLE default
0 0 0 0 0 0 0 0 0 0 0 0 0 0 0 0 0 0 0 0 0 0 0 0 0 0 0 0 0 0 0 0 0 0 0 0 0 0 0 0 0 
SCALARS geom_link_id_0 int 1
LOOKUP_TABLE default
0 0 0 0 0 0 0 0 0 0 0 0 0 0 0 0 0 0 0 0 0 0 0 0 0 0 0 0 0 0 0 0 0 0 0 0 0 0 0 0 0 


CELL_DATA 82
SCALARS GMDS_ID int 1
LOOKUP_TABLE default
1 3 4 7 11 12 14 15 18 20 22 25 27 28 30 31 33 35 36 37 39 40 42 43 45 46 49 50 53 54 56 57 60 64 65 66 71 74 76 78 79 80 81 82 84 86 87 88 89 93 94 95 96 99 100 101 102 103 105 108 110 111 112 113 114 115 116 119 120 123 124 125 126 127 128 129 130 131 132 133 134 135 

SCALARS geom_link_dim_0 int 1
LOOKUP_TABLE default
0 0 0 0 0 0 0 0 0 0 0 0 0 0 0 0 0 0 0 0 0 0 0 0 0 0 0 0 0 0 0 0 0 0 0 0 0 0 0 0 0 0 0 0 0 0 0 0 0 0 0 0 0 0 0 0 0 0 0 0 0 0 0 0 0 0 0 0 0 0 0 0 0 0 0 0 0 0 0 0 0 0 

SCALARS geom_link_id_0 int 1
LOOKUP_TABLE default
0 0 0 0 0 0 0 0 0 0 0 0 0 0 0 0 0 0 0 0 0 0 0 0 0 0 0 0 0 0 0 0 0 0 0 0 0 0 0 0 0 0 0 0 0 0 0 0 0 0 0 0 0 0 0 0 0 0 0 0 0 0 0 0 0 0 0 0 0 0 0 0 0 0 0 0 0 0 0 0 0 0 

