# vtk DataFile Version 3.0
Generated by GMDS VTK Writer

ASCII
DATASET UNSTRUCTURED_GRID
POINTS 36 float
-5 -5 -5
-5 -8.88178419700125e-16 -5
-5 -5 -8.88178419700125e-16
10 0 0
-5 0 0
10 0 5
-5 0 5
10 5 0
-5 5 0
-5 5 5
10 5 5
0 10 0
0 5 0
0 5 -5
0 -5 0
0 0 0
0 0 5
0 -5 5
-8.88178419700125e-16 -5 -5
0 0 -5
0 0 10
0 10 5
0 5 5
0 5 10
5 10 0
5 5 0
5 5 -5
5 -5 0
5 0 0
5 0 5
5 -5 5
5 0 -5
5 0 10
5 10 5
5 5 5
5 5 10

CELLS 69 207
2 15 28
2 12 25
2 0 2
2 3 5
2 0 1
2 8 12
2 24 25
2 14 27
2 1 4
2 7 3
2 28 3
2 2 4
2 11 24
2 4 6
2 25 26
2 8 4
2 13 26
2 9 6
2 10 5
2 8 9
2 7 10
2 25 7
2 11 12
2 13 12
2 2 14
2 4 15
2 6 16
2 14 15
2 15 16
2 17 16
2 14 17
2 0 18
2 1 19
2 18 19
2 19 15
2 18 14
2 20 16
2 15 12
2 19 13
2 9 22
2 11 21
2 21 22
2 12 22
2 16 22
2 22 23
2 20 23
2 16 29
2 29 5
2 17 30
2 27 28
2 28 29
2 29 30
2 27 30
2 19 31
2 28 31
2 20 32
2 29 32
2 25 28
2 26 31
2 21 33
2 22 34
2 34 10
2 24 33
2 33 34
2 25 34
2 29 34
2 23 35
2 34 35
2 32 35

CELL_TYPES 69
3 
3 
3 
3 
3 
3 
3 
3 
3 
3 
3 
3 
3 
3 
3 
3 
3 
3 
3 
3 
3 
3 
3 
3 
3 
3 
3 
3 
3 
3 
3 
3 
3 
3 
3 
3 
3 
3 
3 
3 
3 
3 
3 
3 
3 
3 
3 
3 
3 
3 
3 
3 
3 
3 
3 
3 
3 
3 
3 
3 
3 
3 
3 
3 
3 
3 
3 
3 
3 
POINT_DATA 36
SCALARS GMDS_ID int 1
LOOKUP_TABLE default
0 2 4 5 6 8 9 10 11 12 13 14 15 16 17 18 19 20 21 22 23 25 26 27 28 29 30 31 32 33 34 35 36 37 38 39 
SCALARS geom_link_dim int 1
LOOKUP_TABLE default
0 0 0 1 1 1 1 1 1 1 1 1 1 1 1 1 1 1 0 1 1 1 1 1 1 1 1 1 1 1 1 1 1 1 1 1 
SCALARS geom_link_id int 1
LOOKUP_TABLE default
-1 -1 -1 29 11 30 13 21 5 6 22 4 1 18 28 12 14 27 -1 19 20 3 2 16 9 10 17 31 26 23 32 25 24 7 8 15 


CELL_DATA 69
SCALARS GMDS_ID int 1
LOOKUP_TABLE default
0 1 2 3 5 7 8 9 10 11 12 13 14 15 17 19 20 21 22 23 24 25 26 27 28 29 30 32 33 34 35 36 37 38 39 40 43 46 47 48 49 50 51 52 53 54 55 56 57 58 59 60 61 62 63 64 65 66 67 68 69 70 71 72 73 74 75 76 77 

SCALARS geom_link_dim int 1
LOOKUP_TABLE default
2 2 0 2 0 2 2 2 0 2 2 0 2 2 2 2 2 2 2 2 2 2 2 2 0 2 2 2 2 2 2 0 0 0 2 0 2 2 2 2 2 2 2 2 2 2 2 2 2 2 2 2 2 2 2 2 2 2 2 2 2 2 2 2 2 2 2 2 2 

SCALARS geom_link_id int 1
LOOKUP_TABLE default
4 12 0 57 0 15 33 55 0 56 14 0 21 54 24 60 41 58 46 48 22 39 51 18 0 27 19 52 8 45 40 0 0 0 26 0 25 2 50 23 43 42 9 11 44 31 1 20 17 16 7 34 59 47 13 49 28 6 53 30 5 38 32 29 3 10 37 35 36 

