# vtk DataFile Version 3.0
Generated by GMDS VTK Writer

ASCII
DATASET UNSTRUCTURED_GRID
POINTS 34 float
5 -5 0
10 5 -5
5 5 10
5 5 -5
5 5 0
10 5 0
-5 5 0
5 10 0
0 5 -5
0 5 0
0 -5 0
0 5 10
0 10 0
10 0 0
5 0 0
5 0 10
0 0 -5
0 0 0
5 0 -5
-5 0 0
10 -4.44089209850063e-16 -5
0 0 10
10 0 5
5 0 5
5 5 5
10 5 5
5 -5 5
-5 5 5
0 5 5
0 10 5
5 10 5
0 -5 5
0 0 5
-5 0 5

CELLS 65 195
2 5 4
2 22 13
2 1 5
2 8 3
2 3 4
2 0 14
2 2 24
2 6 9
2 15 23
2 24 4
2 9 4
2 1 3
2 25 24
2 25 5
2 14 4
2 10 0
2 15 2
2 23 14
2 14 13
2 25 22
2 7 4
2 13 5
2 8 9
2 24 23
2 11 2
2 23 22
2 12 7
2 9 12
2 16 8
2 10 17
2 17 9
2 18 3
2 16 17
2 14 17
2 14 18
2 18 16
2 19 6
2 19 17
2 20 1
2 20 18
2 20 13
2 21 11
2 15 21
2 26 0
2 26 23
2 27 6
2 11 28
2 28 9
2 29 12
2 27 28
2 28 29
2 30 7
2 24 28
2 30 24
2 30 29
2 31 10
2 21 32
2 32 17
2 33 19
2 31 32
2 33 32
2 28 32
2 27 33
2 26 31
2 23 32

CELL_TYPES 65
3 
3 
3 
3 
3 
3 
3 
3 
3 
3 
3 
3 
3 
3 
3 
3 
3 
3 
3 
3 
3 
3 
3 
3 
3 
3 
3 
3 
3 
3 
3 
3 
3 
3 
3 
3 
3 
3 
3 
3 
3 
3 
3 
3 
3 
3 
3 
3 
3 
3 
3 
3 
3 
3 
3 
3 
3 
3 
3 
3 
3 
3 
3 
3 
3 
POINT_DATA 34
SCALARS GMDS_ID int 1
LOOKUP_TABLE default
2 12 14 15 18 19 21 22 25 26 27 28 31 33 34 35 37 38 39 41 42 44 45 46 47 48 50 52 53 54 55 57 58 59 
SCALARS geom_link_dim_0 int 1
LOOKUP_TABLE default
0 0 0 0 0 0 0 0 0 0 0 0 0 0 0 0 0 0 0 0 0 0 0 0 0 0 0 0 0 0 0 0 0 0 
SCALARS geom_link_id_0 int 1
LOOKUP_TABLE default
0 0 0 0 0 0 0 0 0 0 0 0 0 0 0 0 0 0 0 0 0 0 0 0 0 0 0 0 0 0 0 0 0 0 


CELL_DATA 65
SCALARS GMDS_ID int 1
LOOKUP_TABLE default
0 1 6 9 10 19 20 21 24 26 30 31 32 34 36 37 38 39 44 46 51 52 55 56 59 63 68 70 80 81 82 84 85 86 87 88 92 94 97 98 99 103 107 111 113 118 119 120 122 124 125 128 129 130 131 135 136 137 139 141 142 144 145 146 147 

SCALARS geom_link_dim_0 int 1
LOOKUP_TABLE default
0 0 0 0 0 0 0 0 0 0 0 0 0 0 0 0 0 0 0 0 0 0 0 0 0 0 0 0 0 0 0 0 0 0 0 0 0 0 0 0 0 0 0 0 0 0 0 0 0 0 0 0 0 0 0 0 0 0 0 0 0 0 0 0 0 

SCALARS geom_link_id_0 int 1
LOOKUP_TABLE default
0 0 0 0 0 0 0 0 0 0 0 0 0 0 0 0 0 0 0 0 0 0 0 0 0 0 0 0 0 0 0 0 0 0 0 0 0 0 0 0 0 0 0 0 0 0 0 0 0 0 0 0 0 0 0 0 0 0 0 0 0 0 0 0 0 

