# vtk DataFile Version 3.0
Generated by GMDS VTK Writer

ASCII
DATASET UNSTRUCTURED_GRID
POINTS 40 float
10 5 5
0 10 5
5 5 5
5 -5 5
10 0 5
8.88178419700125e-16 -5 10
8.88178419700125e-16 10 10
0 0 5
0 5 10
0 5 -5
-5 5 10
-5 5 -5
5 5 -5
5 5 10
5 10 10
0 -5 5
-5 5 5
5 -5 10
0 0 -5
0 0 10
-5 -4.44089209850063e-16 10
-5 -4.44089209850063e-16 -5
-5 0 5
5 0 10
5 0 -5
5 0 5
0 -5 0
0 0 0
-5 0 0
0 5 5
10 5 0
5 5 0
5 10 0
-5 5 0
0 5 0
0 10 0
5 10 5
5 -5 0
5 0 0
10 0 0

CELLS 80 240
2 14 6
2 15 3
2 22 20
2 2 36
2 13 8
2 22 16
2 12 9
2 18 9
2 15 5
2 3 17
2 5 19
2 3 25
2 7 19
2 29 8
2 21 28
2 8 6
2 25 4
2 19 8
2 20 10
2 18 27
2 0 2
2 10 8
2 11 9
2 7 25
2 25 23
2 14 13
2 2 25
2 7 29
2 2 13
2 17 5
2 33 16
2 16 29
2 21 11
2 20 19
2 21 18
2 29 1
2 32 36
2 17 23
2 23 13
2 16 10
2 24 12
2 27 7
2 19 23
2 18 24
2 38 25
2 26 27
2 27 28
2 39 4
2 15 7
2 35 1
2 28 22
2 12 31
2 30 0
2 2 29
2 30 31
2 31 32
2 1 6
2 11 33
2 9 34
2 0 4
2 34 33
2 35 34
2 37 3
2 26 15
2 34 31
2 35 32
2 34 27
2 33 28
2 36 14
2 7 22
2 24 38
2 36 1
2 34 29
2 37 38
2 39 38
2 31 2
2 31 38
2 30 39
2 26 37
2 27 38

CELL_TYPES 80
3 
3 
3 
3 
3 
3 
3 
3 
3 
3 
3 
3 
3 
3 
3 
3 
3 
3 
3 
3 
3 
3 
3 
3 
3 
3 
3 
3 
3 
3 
3 
3 
3 
3 
3 
3 
3 
3 
3 
3 
3 
3 
3 
3 
3 
3 
3 
3 
3 
3 
3 
3 
3 
3 
3 
3 
3 
3 
3 
3 
3 
3 
3 
3 
3 
3 
3 
3 
3 
3 
3 
3 
3 
3 
3 
3 
3 
3 
3 
3 
POINT_DATA 40
SCALARS GMDS_ID int 1
LOOKUP_TABLE default
0 6 7 8 9 10 11 12 14 15 16 17 18 19 20 21 22 23 24 25 26 27 28 30 31 32 33 34 35 36 37 38 39 40 41 42 44 45 46 47 
SCALARS geom_link_dim int 1
LOOKUP_TABLE default
1 1 1 1 1 0 0 1 1 1 0 0 1 1 0 1 1 0 1 1 0 0 1 1 1 1 1 1 1 1 1 1 1 1 1 1 1 1 1 1 
SCALARS geom_link_id int 1
LOOKUP_TABLE default
22 3 8 32 30 -1 -1 14 16 18 -1 -1 17 15 -1 27 6 -1 19 20 -1 -1 13 24 25 23 28 12 11 2 21 10 9 5 1 4 7 31 26 29 


CELL_DATA 80
SCALARS GMDS_ID int 1
LOOKUP_TABLE default
0 1 2 3 4 5 6 12 13 14 16 17 18 20 24 25 27 29 31 32 35 36 38 39 40 42 44 46 47 48 50 52 53 55 57 59 60 62 63 64 65 69 70 71 72 73 74 75 76 77 78 80 82 84 85 86 87 88 90 94 96 97 98 99 100 101 102 103 105 106 108 110 112 113 114 115 116 117 118 119 

SCALARS geom_link_dim int 1
LOOKUP_TABLE default
0 2 0 2 2 2 2 2 0 0 0 2 2 2 0 0 2 2 0 2 2 0 0 0 2 0 2 0 2 0 2 2 0 0 0 2 2 0 2 0 2 2 2 2 2 2 2 2 2 2 2 2 2 0 2 2 0 0 2 2 2 2 2 2 2 2 0 2 0 2 2 2 2 2 2 2 2 2 2 2 

SCALARS geom_link_id int 1
LOOKUP_TABLE default
0 17 0 29 37 58 41 50 0 0 0 34 25 44 0 0 20 31 0 26 38 0 0 0 28 0 10 0 35 0 48 23 0 0 0 42 32 0 36 0 53 8 49 47 7 52 27 57 45 43 54 24 22 0 39 33 0 0 18 46 15 51 59 40 12 21 0 60 0 19 13 30 9 16 14 3 6 56 55 4 

