# vtk DataFile Version 3.0
Generated by GMDS VTK Writer

ASCII
DATASET UNSTRUCTURED_GRID
POINTS 48 float
-5 0 0
10 10 -5
10 -5 -5
10 10 10
10 -5 10
10 -8.88178419700125e-16 10
10 -8.88178419700125e-16 -5
5 -5 -5
5 -5 10
5 0 10
5 0 -5
5 10 10
5 10 -5
10 5 10
10 5 -5
5 5 -5
5 5 10
10 5 5
5 5 5
5 10 5
10 10 5
10 0 5
5 0 5
10 -5 5
5 -5 5
-5 0 5
-5 5 5
0 0 -5
0 0 5
0 -5 5
0 0 10
0 5 -5
0 5 5
0 5 10
0 10 5
-5 5 0
0 5 0
0 0 0
10 5 0
5 5 0
5 10 0
10 10 -4.44089209850063e-16
10 0 0
5 0 0
10 -5 -4.44089209850063e-16
5 -5 0
0 -5 0
0 10 0

CELLS 96 288
2 37 36
2 4 8
2 15 12
2 38 17
2 13 3
2 2 7
2 10 15
2 27 10
2 19 11
2 18 16
2 4 5
2 17 13
2 2 6
2 14 1
2 5 9
2 35 36
2 6 10
2 0 37
2 8 9
2 28 29
2 7 10
2 3 11
2 35 26
2 1 12
2 31 36
2 25 28
2 9 16
2 16 11
2 28 22
2 14 15
2 13 16
2 27 37
2 29 24
2 0 35
2 20 3
2 17 18
2 19 18
2 20 19
2 20 17
2 21 5
2 22 9
2 21 22
2 22 18
2 21 17
2 23 4
2 24 8
2 23 21
2 24 22
2 23 24
2 14 38
2 15 39
2 37 28
2 25 26
2 36 32
2 30 9
2 30 28
2 31 15
2 26 32
2 32 18
2 27 31
2 28 32
2 33 16
2 33 32
2 30 33
2 0 25
2 34 19
2 32 34
2 39 18
2 12 40
2 40 19
2 1 41
2 38 39
2 40 39
2 41 40
2 41 38
2 6 42
2 42 21
2 10 43
2 43 22
2 42 43
2 43 39
2 42 38
2 2 44
2 7 45
2 45 24
2 44 42
2 45 43
2 44 45
2 46 29
2 46 37
2 43 37
2 45 46
2 39 36
2 47 34
2 36 47
2 40 47

CELL_TYPES 96
3 
3 
3 
3 
3 
3 
3 
3 
3 
3 
3 
3 
3 
3 
3 
3 
3 
3 
3 
3 
3 
3 
3 
3 
3 
3 
3 
3 
3 
3 
3 
3 
3 
3 
3 
3 
3 
3 
3 
3 
3 
3 
3 
3 
3 
3 
3 
3 
3 
3 
3 
3 
3 
3 
3 
3 
3 
3 
3 
3 
3 
3 
3 
3 
3 
3 
3 
3 
3 
3 
3 
3 
3 
3 
3 
3 
3 
3 
3 
3 
3 
3 
3 
3 
3 
3 
3 
3 
3 
3 
3 
3 
3 
3 
3 
3 
POINT_DATA 48
SCALARS GMDS_ID int 1
LOOKUP_TABLE default
1 2 3 6 7 10 11 12 13 14 15 16 17 18 19 20 21 24 25 26 27 28 29 30 31 32 34 37 38 39 40 42 43 44 46 48 49 50 51 52 53 54 55 56 57 58 59 61 
SCALARS geom_link_dim int 1
LOOKUP_TABLE default
1 0 0 0 0 0 0 0 0 1 1 0 0 0 0 1 1 1 1 1 0 1 1 0 1 1 1 1 1 1 1 1 1 1 1 1 1 1 1 1 1 0 1 1 0 1 1 1 
SCALARS geom_link_id int 1
LOOKUP_TABLE default
11 -1 -1 -1 -1 -1 -1 -1 -1 24 25 -1 -1 -1 -1 17 15 22 8 7 -1 30 23 -1 32 13 6 19 14 27 20 18 2 16 3 5 1 12 21 10 9 -1 29 26 -1 31 28 4 


CELL_DATA 96
SCALARS GMDS_ID int 1
LOOKUP_TABLE default
0 2 3 4 5 6 7 10 13 15 16 17 18 23 24 25 26 27 29 30 31 32 33 34 35 37 39 40 41 42 44 49 50 51 53 54 55 56 57 59 61 62 63 64 66 68 69 70 71 76 78 81 82 85 88 91 95 96 97 98 100 102 103 104 105 108 110 116 117 118 119 121 122 123 124 125 126 127 128 129 130 131 132 134 135 136 137 138 140 141 142 143 148 150 151 152 

SCALARS geom_link_dim int 1
LOOKUP_TABLE default
2 0 0 2 0 0 2 2 0 2 0 0 0 0 0 2 0 2 0 2 0 0 2 0 2 2 2 0 2 0 0 2 2 2 0 2 2 0 0 0 2 2 2 2 0 0 0 2 0 0 2 2 2 2 2 2 2 2 2 2 2 2 2 2 2 2 2 2 0 2 0 2 2 0 0 0 2 2 2 2 2 2 0 0 2 0 2 0 2 2 2 2 2 2 2 2 

SCALARS geom_link_id int 1
LOOKUP_TABLE default
2 0 0 22 0 0 53 47 0 35 0 0 0 0 0 15 0 27 0 45 0 0 48 0 18 19 36 0 1 0 0 26 17 60 0 38 29 0 0 0 28 20 10 46 0 0 0 34 0 0 24 8 58 9 49 25 41 23 5 50 11 37 44 31 54 30 42 3 0 32 0 39 33 0 0 0 57 13 7 14 6 56 0 0 59 0 16 0 40 52 4 55 12 43 51 21 

