# vtk DataFile Version 3.0
Generated by GMDS VTK Writer

ASCII
DATASET UNSTRUCTURED_GRID
POINTS 57 float
-5 -5 -5
-5 10 -5
5 -5 0
10 -5 -5
-5 -5 10
-5 10 10
10 -5 -8.88178419700125e-16
5 10 -5
5 -5 -5
5 -5 10
5 10 10
10 5 -5
5 5 10
5 5 -5
-5 5 10
-5 5 -5
5 5 0
10 5 0
-5 -5 -8.88178419700125e-16
-5 5 0
5 10 0
-5 10 -8.88178419700125e-16
8.88178419700125e-16 -5 -5
0 5 -5
0 5 0
0 -5 0
0 5 10
8.88178419700125e-16 -5 10
8.88178419700125e-16 10 -5
0 10 0
8.88178419700125e-16 10 10
10 0 0
5 0 0
5 0 10
0 0 -5
0 0 0
5 0 -5
-5 -4.44089209850063e-16 -5
-5 0 0
10 -4.44089209850063e-16 -5
-5 -4.44089209850063e-16 10
0 0 10
10 0 5
5 0 5
5 5 5
10 5 5
10 -5 5
5 -5 5
-5 10 5
-5 5 5
0 5 5
0 10 5
5 10 5
-5 -5 5
0 -5 5
0 0 5
-5 0 5

CELLS 124 372
2 17 16
2 42 31
2 6 2
2 11 17
2 18 25
2 23 13
2 13 16
2 22 8
2 3 6
2 6 31
2 3 8
2 9 33
2 8 2
2 2 32
2 12 44
2 19 24
2 15 23
2 33 43
2 12 10
2 44 16
2 13 7
2 0 22
2 24 16
2 11 13
2 45 44
2 14 5
2 45 17
2 15 1
2 32 16
2 25 2
2 33 12
2 43 32
2 0 18
2 15 19
2 32 31
2 45 42
2 7 20
2 1 21
2 20 16
2 31 17
2 21 19
2 23 24
2 44 43
2 22 25
2 14 26
2 26 12
2 4 27
2 27 9
2 43 42
2 1 28
2 28 7
2 21 29
2 29 20
2 28 23
2 24 29
2 28 29
2 5 30
2 30 10
2 30 26
2 22 34
2 34 23
2 25 35
2 35 24
2 8 36
2 36 13
2 34 35
2 32 35
2 32 36
2 36 34
2 0 37
2 37 15
2 18 38
2 38 19
2 37 38
2 38 35
2 37 34
2 3 39
2 39 11
2 39 36
2 39 31
2 4 40
2 40 14
2 27 41
2 41 26
2 40 41
2 33 41
2 46 6
2 9 47
2 47 2
2 46 47
2 47 43
2 46 42
2 5 48
2 14 49
2 49 19
2 26 50
2 50 24
2 30 51
2 51 29
2 48 49
2 49 50
2 50 51
2 48 51
2 10 52
2 52 20
2 44 50
2 52 44
2 52 51
2 4 53
2 53 18
2 27 54
2 54 25
2 41 55
2 55 35
2 40 56
2 56 38
2 53 54
2 54 55
2 56 55
2 53 56
2 50 55
2 49 56
2 47 54
2 43 55

CELL_TYPES 124
3 
3 
3 
3 
3 
3 
3 
3 
3 
3 
3 
3 
3 
3 
3 
3 
3 
3 
3 
3 
3 
3 
3 
3 
3 
3 
3 
3 
3 
3 
3 
3 
3 
3 
3 
3 
3 
3 
3 
3 
3 
3 
3 
3 
3 
3 
3 
3 
3 
3 
3 
3 
3 
3 
3 
3 
3 
3 
3 
3 
3 
3 
3 
3 
3 
3 
3 
3 
3 
3 
3 
3 
3 
3 
3 
3 
3 
3 
3 
3 
3 
3 
3 
3 
3 
3 
3 
3 
3 
3 
3 
3 
3 
3 
3 
3 
3 
3 
3 
3 
3 
3 
3 
3 
3 
3 
3 
3 
3 
3 
3 
3 
3 
3 
3 
3 
3 
3 
3 
3 
3 
3 
3 
3 
POINT_DATA 57
SCALARS GMDS_ID int 1
LOOKUP_TABLE default
0 1 2 3 4 5 6 8 9 10 11 12 14 15 16 17 18 19 20 21 22 23 24 25 26 27 28 29 30 31 32 33 34 35 37 38 39 40 41 42 43 44 45 46 47 48 49 50 51 52 53 54 55 56 57 58 59 
SCALARS geom_link_dim_0 int 1
LOOKUP_TABLE default
0 0 0 0 0 0 0 0 0 0 0 0 0 0 0 0 0 0 0 0 0 0 0 0 0 0 0 0 0 0 0 0 0 0 0 0 0 0 0 0 0 0 0 0 0 0 0 0 0 0 0 0 0 0 0 0 0 
SCALARS geom_link_id_0 int 1
LOOKUP_TABLE default
0 0 0 0 0 0 0 0 0 0 0 0 0 0 0 0 0 0 0 0 0 0 0 0 0 0 0 0 0 0 0 0 0 0 0 0 0 0 0 0 0 0 0 0 0 0 0 0 0 0 0 0 0 0 0 0 0 


CELL_DATA 124
SCALARS GMDS_ID int 1
LOOKUP_TABLE default
0 1 4 6 8 9 10 11 12 13 14 17 18 19 20 21 23 24 25 26 27 28 30 31 32 33 34 35 36 37 38 39 40 42 44 46 47 49 51 52 53 55 56 57 58 59 60 61 63 65 66 67 68 69 70 71 72 73 74 79 80 81 82 83 84 85 86 87 88 89 90 91 92 93 94 95 96 97 98 99 100 101 102 103 106 107 109 110 111 112 113 114 115 117 118 119 120 121 122 123 124 125 126 127 128 129 130 131 132 133 134 135 136 137 138 139 140 141 142 143 144 145 146 147 

SCALARS geom_link_dim_0 int 1
LOOKUP_TABLE default
0 0 0 0 0 0 0 0 0 0 0 0 0 0 0 0 0 0 0 0 0 0 0 0 0 0 0 0 0 0 0 0 0 0 0 0 0 0 0 0 0 0 0 0 0 0 0 0 0 0 0 0 0 0 0 0 0 0 0 0 0 0 0 0 0 0 0 0 0 0 0 0 0 0 0 0 0 0 0 0 0 0 0 0 0 0 0 0 0 0 0 0 0 0 0 0 0 0 0 0 0 0 0 0 0 0 0 0 0 0 0 0 0 0 0 0 0 0 0 0 0 0 0 0 

SCALARS geom_link_id_0 int 1
LOOKUP_TABLE default
0 0 0 0 0 0 0 0 0 0 0 0 0 0 0 0 0 0 0 0 0 0 0 0 0 0 0 0 0 0 0 0 0 0 0 0 0 0 0 0 0 0 0 0 0 0 0 0 0 0 0 0 0 0 0 0 0 0 0 0 0 0 0 0 0 0 0 0 0 0 0 0 0 0 0 0 0 0 0 0 0 0 0 0 0 0 0 0 0 0 0 0 0 0 0 0 0 0 0 0 0 0 0 0 0 0 0 0 0 0 0 0 0 0 0 0 0 0 0 0 0 0 0 0 

