# vtk DataFile Version 3.0
Generated by GMDS VTK Writer

ASCII
DATASET UNSTRUCTURED_GRID
POINTS 32 float
10 5 5
0 10 5
5 5 5
5 -5 5
10 0 5
0 0 5
0 5 10
0 5 -5
5 5 -5
5 5 10
0 -5 5
-5 5 5
0 0 -5
0 0 10
-5 0 5
5 0 10
5 0 -5
5 0 5
0 -5 0
0 0 0
-5 0 0
0 5 5
10 5 0
5 5 0
5 10 0
-5 5 0
0 5 0
0 10 0
5 10 5
5 -5 0
5 0 0
10 0 0

CELLS 60 180
2 10 3
2 2 28
2 9 6
2 14 11
2 8 7
2 12 7
2 3 17
2 5 13
2 21 6
2 17 4
2 13 6
2 12 19
2 0 2
2 5 17
2 17 15
2 2 17
2 5 21
2 2 9
2 25 11
2 11 21
2 21 1
2 24 28
2 15 9
2 16 8
2 19 5
2 13 15
2 12 16
2 30 17
2 18 19
2 19 20
2 31 4
2 10 5
2 27 1
2 20 14
2 8 23
2 22 0
2 2 21
2 22 23
2 23 24
2 7 26
2 0 4
2 26 25
2 27 26
2 29 3
2 18 10
2 26 23
2 27 24
2 26 19
2 25 20
2 5 14
2 16 30
2 28 1
2 26 21
2 29 30
2 31 30
2 23 2
2 23 30
2 22 31
2 18 29
2 19 30

CELL_TYPES 60
3 
3 
3 
3 
3 
3 
3 
3 
3 
3 
3 
3 
3 
3 
3 
3 
3 
3 
3 
3 
3 
3 
3 
3 
3 
3 
3 
3 
3 
3 
3 
3 
3 
3 
3 
3 
3 
3 
3 
3 
3 
3 
3 
3 
3 
3 
3 
3 
3 
3 
3 
3 
3 
3 
3 
3 
3 
3 
3 
3 
POINT_DATA 32
SCALARS GMDS_ID int 1
LOOKUP_TABLE default
0 6 7 8 9 12 14 15 18 19 21 22 24 25 28 30 31 32 33 34 35 36 37 38 39 40 41 42 44 45 46 47 
SCALARS geom_link_dim int 1
LOOKUP_TABLE default
1 1 1 1 1 1 1 1 1 1 1 1 1 1 1 1 1 1 1 1 1 1 1 1 1 1 1 1 1 1 1 1 
SCALARS geom_link_id int 1
LOOKUP_TABLE default
22 3 8 32 30 14 16 18 17 15 27 6 19 20 13 24 25 23 28 12 11 2 21 10 9 5 1 4 7 31 26 29 


CELL_DATA 60
SCALARS GMDS_ID int 1
LOOKUP_TABLE default
1 3 4 5 6 12 17 18 20 27 29 32 35 39 40 44 46 47 50 52 59 60 63 65 69 70 71 72 73 74 75 76 77 78 80 82 84 85 86 90 94 96 97 98 99 100 101 102 103 106 108 110 112 113 114 115 116 117 118 119 

SCALARS geom_link_dim int 1
LOOKUP_TABLE default
2 2 2 2 2 2 2 2 2 2 2 2 2 2 2 2 2 2 2 2 2 2 2 2 2 2 2 2 2 2 2 2 2 2 2 2 2 2 2 2 2 2 2 2 2 2 2 2 2 2 2 2 2 2 2 2 2 2 2 2 

SCALARS geom_link_id int 1
LOOKUP_TABLE default
17 29 37 58 41 50 34 25 44 20 31 26 38 1 28 10 11 35 48 23 42 32 36 53 8 49 47 7 52 27 57 45 43 54 24 22 5 39 33 18 46 15 51 59 40 12 21 2 60 19 13 30 9 16 14 3 6 56 55 4 

