# vtk DataFile Version 3.0
Generated by GMDS VTK Writer

ASCII
DATASET UNSTRUCTURED_GRID
POINTS 52 float
-5 -5 -5
5 -5 0
10 -5 -5
-5 -5 10
10 -5 -8.88178419700125e-16
5 10 -5
5 -5 -5
5 -5 10
5 10 10
10 5 -5
5 5 10
5 5 -5
-5 5 10
-5 5 -5
5 5 0
10 5 0
-5 -5 -8.88178419700125e-16
-5 5 0
5 10 0
8.88178419700125e-16 -5 -5
0 5 -5
0 5 0
0 -5 0
0 5 10
8.88178419700125e-16 -5 10
8.88178419700125e-16 10 -5
0 10 0
8.88178419700125e-16 10 10
10 0 0
5 0 0
5 0 10
0 0 -5
0 0 0
5 0 -5
-5 -4.44089209850063e-16 -5
-5 0 0
10 -4.44089209850063e-16 -5
-5 -4.44089209850063e-16 10
0 0 10
10 0 5
5 0 5
5 5 5
10 5 5
5 -5 5
-5 5 5
0 5 5
0 10 5
5 10 5
-5 -5 5
0 -5 5
0 0 5
-5 0 5

CELLS 111 333
2 15 14
2 39 28
2 4 1
2 9 15
2 16 22
2 20 11
2 11 14
2 19 6
2 2 4
2 4 28
2 2 6
2 7 30
2 6 1
2 1 29
2 10 41
2 17 21
2 13 20
2 30 40
2 10 8
2 41 14
2 11 5
2 0 19
2 21 14
2 9 11
2 42 41
2 42 15
2 29 14
2 22 1
2 30 10
2 40 29
2 0 16
2 13 17
2 29 28
2 42 39
2 5 18
2 18 14
2 28 15
2 20 21
2 41 40
2 19 22
2 12 23
2 23 10
2 3 24
2 24 7
2 40 39
2 25 5
2 26 18
2 25 20
2 21 26
2 25 26
2 27 8
2 27 23
2 19 31
2 31 20
2 22 32
2 32 21
2 6 33
2 33 11
2 31 32
2 29 32
2 29 33
2 33 31
2 0 34
2 34 13
2 16 35
2 35 17
2 34 35
2 35 32
2 34 31
2 2 36
2 36 9
2 36 33
2 36 28
2 3 37
2 37 12
2 24 38
2 38 23
2 37 38
2 30 38
2 7 43
2 43 1
2 43 40
2 12 44
2 44 17
2 23 45
2 45 21
2 27 46
2 46 26
2 44 45
2 45 46
2 8 47
2 47 18
2 41 45
2 47 41
2 47 46
2 3 48
2 48 16
2 24 49
2 49 22
2 38 50
2 50 32
2 37 51
2 51 35
2 48 49
2 49 50
2 51 50
2 48 51
2 45 50
2 44 51
2 43 49
2 40 50

CELL_TYPES 111
3 
3 
3 
3 
3 
3 
3 
3 
3 
3 
3 
3 
3 
3 
3 
3 
3 
3 
3 
3 
3 
3 
3 
3 
3 
3 
3 
3 
3 
3 
3 
3 
3 
3 
3 
3 
3 
3 
3 
3 
3 
3 
3 
3 
3 
3 
3 
3 
3 
3 
3 
3 
3 
3 
3 
3 
3 
3 
3 
3 
3 
3 
3 
3 
3 
3 
3 
3 
3 
3 
3 
3 
3 
3 
3 
3 
3 
3 
3 
3 
3 
3 
3 
3 
3 
3 
3 
3 
3 
3 
3 
3 
3 
3 
3 
3 
3 
3 
3 
3 
3 
3 
3 
3 
3 
3 
3 
3 
3 
3 
3 
POINT_DATA 52
SCALARS GMDS_ID int 1
LOOKUP_TABLE default
0 2 3 4 6 8 9 10 11 12 14 15 16 17 18 19 20 21 22 24 25 26 27 28 29 30 31 32 33 34 35 37 38 39 40 41 42 43 44 45 46 47 48 50 52 53 54 55 56 57 58 59 
SCALARS geom_link_dim_0 int 1
LOOKUP_TABLE default
0 0 0 0 0 0 0 0 0 0 0 0 0 0 0 0 0 0 0 0 0 0 0 0 0 0 0 0 0 0 0 0 0 0 0 0 0 0 0 0 0 0 0 0 0 0 0 0 0 0 0 0 
SCALARS geom_link_id_0 int 1
LOOKUP_TABLE default
0 0 0 0 0 0 0 0 0 0 0 0 0 0 0 0 0 0 0 0 0 0 0 0 0 0 0 0 0 0 0 0 0 0 0 0 0 0 0 0 0 0 0 0 0 0 0 0 0 0 0 0 


CELL_DATA 111
SCALARS GMDS_ID int 1
LOOKUP_TABLE default
0 1 4 6 8 9 10 11 12 13 14 17 18 19 20 21 23 24 25 26 27 28 30 31 32 34 36 37 38 39 40 42 44 46 47 51 52 55 56 57 58 59 60 61 63 66 68 69 70 71 73 74 79 80 81 82 83 84 85 86 87 88 89 90 91 92 93 94 95 96 97 98 99 100 101 102 103 106 107 110 111 113 117 118 119 120 121 122 124 125 127 128 129 130 131 132 133 134 135 136 137 138 139 140 141 142 143 144 145 146 147 

SCALARS geom_link_dim_0 int 1
LOOKUP_TABLE default
0 0 0 0 0 0 0 0 0 0 0 0 0 0 0 0 0 0 0 0 0 0 0 0 0 0 0 0 0 0 0 0 0 0 0 0 0 0 0 0 0 0 0 0 0 0 0 0 0 0 0 0 0 0 0 0 0 0 0 0 0 0 0 0 0 0 0 0 0 0 0 0 0 0 0 0 0 0 0 0 0 0 0 0 0 0 0 0 0 0 0 0 0 0 0 0 0 0 0 0 0 0 0 0 0 0 0 0 0 0 0 

SCALARS geom_link_id_0 int 1
LOOKUP_TABLE default
0 0 0 0 0 0 0 0 0 0 0 0 0 0 0 0 0 0 0 0 0 0 0 0 0 0 0 0 0 0 0 0 0 0 0 0 0 0 0 0 0 0 0 0 0 0 0 0 0 0 0 0 0 0 0 0 0 0 0 0 0 0 0 0 0 0 0 0 0 0 0 0 0 0 0 0 0 0 0 0 0 0 0 0 0 0 0 0 0 0 0 0 0 0 0 0 0 0 0 0 0 0 0 0 0 0 0 0 0 0 0 

