# vtk DataFile Version 3.0
Generated by GMDS VTK Writer

ASCII
DATASET UNSTRUCTURED_GRID
POINTS 57 float
-5 10 -5
10 -5 -5
-5 10 10
10 10 10
10 -5 10
-5 -8.88178419700125e-16 10
10 -8.88178419700125e-16 10
10 -8.88178419700125e-16 -5
-5 -5 -8.88178419700125e-16
10 -5 -8.88178419700125e-16
10 0 0
-5 0 0
-5 10 -8.88178419700125e-16
-8.88178419700125e-16 -5 -5
0 0 -5
0 0 0
0 -5 0
0 0 10
-8.88178419700125e-16 10 -5
0 10 0
-8.88178419700125e-16 10 10
-5 5 -5
-5 5 0
0 5 0
0 5 -5
10 5 0
-5 5 10
0 5 10
10 5 10
0 -5 5
0 0 5
10 0 5
10 -5 5
10 5 5
-2.22044604925031e-16 5 5
-5 -5 5
-5 0 5
10 10 5
0 10 5
-5 5 5
-5 10 5
5 5 -5
5 5 0
5 0 0
5 0 -5
5 10 -5
5 10 0
5 5 5
5 0 5
5 -5 -5
5 -5 0
5 -5 5
5 -5 10
5 0 10
5 5 10
5 10 5
5 10 10

CELLS 123 369
2 24 41
2 0 21
2 1 9
2 24 14
2 44 43
2 12 22
2 19 23
2 11 15
2 32 4
2 10 31
2 4 6
2 15 30
2 1 7
2 16 29
2 22 11
2 23 15
2 7 10
2 44 41
2 21 22
2 9 10
2 18 24
2 8 11
2 23 42
2 0 12
2 15 43
2 30 29
2 8 16
2 13 14
2 14 15
2 16 15
2 13 16
2 5 17
2 43 42
2 42 41
2 0 18
2 12 19
2 31 6
2 9 32
2 18 19
2 2 20
2 30 17
2 43 10
2 22 23
2 24 23
2 21 24
2 25 10
2 2 26
2 26 5
2 20 27
2 27 17
2 44 7
2 14 44
2 26 27
2 3 28
2 28 6
2 42 25
2 32 31
2 25 33
2 33 28
2 23 34
2 34 27
2 30 34
2 31 33
2 8 35
2 11 36
2 36 5
2 35 36
2 36 30
2 35 29
2 37 3
2 19 38
2 38 20
2 38 34
2 37 33
2 22 39
2 39 26
2 39 34
2 36 39
2 12 40
2 40 2
2 40 38
2 40 39
2 18 45
2 19 46
2 45 46
2 46 42
2 45 41
2 34 47
2 47 33
2 30 48
2 48 31
2 42 47
2 48 47
2 43 48
2 13 49
2 49 1
2 16 50
2 50 9
2 49 44
2 43 50
2 49 50
2 29 51
2 51 32
2 52 4
2 17 53
2 53 6
2 51 48
2 52 51
2 53 52
2 53 48
2 50 51
2 27 54
2 54 28
2 54 47
2 53 54
2 38 55
2 55 37
2 47 55
2 46 55
2 20 56
2 56 3
2 56 54
2 56 55

CELL_TYPES 123
3 
3 
3 
3 
3 
3 
3 
3 
3 
3 
3 
3 
3 
3 
3 
3 
3 
3 
3 
3 
3 
3 
3 
3 
3 
3 
3 
3 
3 
3 
3 
3 
3 
3 
3 
3 
3 
3 
3 
3 
3 
3 
3 
3 
3 
3 
3 
3 
3 
3 
3 
3 
3 
3 
3 
3 
3 
3 
3 
3 
3 
3 
3 
3 
3 
3 
3 
3 
3 
3 
3 
3 
3 
3 
3 
3 
3 
3 
3 
3 
3 
3 
3 
3 
3 
3 
3 
3 
3 
3 
3 
3 
3 
3 
3 
3 
3 
3 
3 
3 
3 
3 
3 
3 
3 
3 
3 
3 
3 
3 
3 
3 
3 
3 
3 
3 
3 
3 
3 
3 
3 
3 
3 
POINT_DATA 57
SCALARS GMDS_ID int 1
LOOKUP_TABLE default
1 3 5 6 7 9 10 11 12 13 14 15 17 18 19 20 21 22 24 25 26 27 28 29 30 31 33 34 35 36 37 38 39 40 41 42 43 44 45 46 47 48 49 50 51 52 53 54 55 56 57 58 59 60 61 62 63 
SCALARS geom_link_dim_0 int 1
LOOKUP_TABLE default
0 0 0 0 0 0 0 0 0 0 0 0 0 0 0 0 0 0 0 0 0 0 0 0 0 0 0 0 0 0 0 0 0 0 0 0 0 0 0 0 0 0 0 0 0 0 0 0 0 0 0 0 0 0 0 0 0 
SCALARS geom_link_id_0 int 1
LOOKUP_TABLE default
0 0 0 0 0 0 0 0 0 0 0 0 0 0 0 0 0 0 0 0 0 0 0 0 0 0 0 0 0 0 0 0 0 0 0 0 0 0 0 0 0 0 0 0 0 0 0 0 0 0 0 0 0 0 0 0 0 


CELL_DATA 123
SCALARS GMDS_ID int 1
LOOKUP_TABLE default
0 1 2 3 4 5 7 8 13 15 16 17 18 19 21 23 24 27 28 29 30 31 33 34 35 38 39 41 42 43 44 45 49 51 52 54 56 57 58 59 61 62 63 64 65 67 73 74 75 76 77 78 79 80 81 82 85 87 88 89 90 92 93 94 96 97 98 99 100 102 103 104 106 107 108 109 110 111 112 113 114 115 116 118 120 121 122 123 124 125 126 127 128 129 130 131 132 133 134 135 136 137 138 140 141 142 143 144 145 146 147 148 149 150 151 152 153 154 155 156 157 158 159 

SCALARS geom_link_dim_0 int 1
LOOKUP_TABLE default
0 0 0 0 0 0 0 0 0 0 0 0 0 0 0 0 0 0 0 0 0 0 0 0 0 0 0 0 0 0 0 0 0 0 0 0 0 0 0 0 0 0 0 0 0 0 0 0 0 0 0 0 0 0 0 0 0 0 0 0 0 0 0 0 0 0 0 0 0 0 0 0 0 0 0 0 0 0 0 0 0 0 0 0 0 0 0 0 0 0 0 0 0 0 0 0 0 0 0 0 0 0 0 0 0 0 0 0 0 0 0 0 0 0 0 0 0 0 0 0 0 0 0 

SCALARS geom_link_id_0 int 1
LOOKUP_TABLE default
0 0 0 0 0 0 0 0 0 0 0 0 0 0 0 0 0 0 0 0 0 0 0 0 0 0 0 0 0 0 0 0 0 0 0 0 0 0 0 0 0 0 0 0 0 0 0 0 0 0 0 0 0 0 0 0 0 0 0 0 0 0 0 0 0 0 0 0 0 0 0 0 0 0 0 0 0 0 0 0 0 0 0 0 0 0 0 0 0 0 0 0 0 0 0 0 0 0 0 0 0 0 0 0 0 0 0 0 0 0 0 0 0 0 0 0 0 0 0 0 0 0 0 

