# vtk DataFile Version 3.0
Generated by GMDS VTK Writer

ASCII
DATASET UNSTRUCTURED_GRID
POINTS 50 float
-5 -5 -5
5 -5 0
10 -5 -5
-5 -5 10
10 -5 -8.88178419700125e-16
5 -5 -5
5 -5 10
5 10 10
10 5 -5
5 5 10
5 5 -5
-5 5 10
-5 5 -5
5 5 0
10 5 0
-5 -5 -8.88178419700125e-16
-5 5 0
5 10 0
8.88178419700125e-16 -5 -5
0 5 -5
0 5 0
0 -5 0
0 5 10
8.88178419700125e-16 -5 10
0 10 0
8.88178419700125e-16 10 10
10 0 0
5 0 0
5 0 10
0 0 -5
0 0 0
5 0 -5
-5 -4.44089209850063e-16 -5
-5 0 0
10 -4.44089209850063e-16 -5
-5 -4.44089209850063e-16 10
0 0 10
10 0 5
5 0 5
5 5 5
10 5 5
5 -5 5
-5 5 5
0 5 5
0 10 5
5 10 5
-5 -5 5
0 -5 5
0 0 5
-5 0 5

CELLS 105 315
2 14 13
2 37 26
2 4 1
2 8 14
2 15 21
2 19 10
2 10 13
2 2 4
2 4 26
2 2 5
2 6 28
2 5 1
2 1 27
2 9 39
2 16 20
2 12 19
2 28 38
2 9 7
2 39 13
2 0 18
2 20 13
2 8 10
2 40 39
2 40 14
2 27 13
2 21 1
2 28 9
2 38 27
2 0 15
2 12 16
2 27 26
2 40 37
2 17 13
2 26 14
2 19 20
2 39 38
2 18 21
2 11 22
2 22 9
2 3 23
2 23 6
2 38 37
2 24 17
2 20 24
2 25 7
2 25 22
2 18 29
2 29 19
2 21 30
2 30 20
2 5 31
2 31 10
2 29 30
2 27 30
2 27 31
2 31 29
2 0 32
2 32 12
2 15 33
2 33 16
2 32 33
2 33 30
2 32 29
2 2 34
2 34 8
2 34 31
2 34 26
2 3 35
2 35 11
2 23 36
2 36 22
2 35 36
2 28 36
2 6 41
2 41 1
2 41 38
2 11 42
2 42 16
2 22 43
2 43 20
2 25 44
2 44 24
2 42 43
2 43 44
2 7 45
2 45 17
2 39 43
2 45 39
2 45 44
2 3 46
2 46 15
2 23 47
2 47 21
2 36 48
2 48 30
2 35 49
2 49 33
2 46 47
2 47 48
2 49 48
2 46 49
2 43 48
2 42 49
2 41 47
2 38 48

CELL_TYPES 105
3 
3 
3 
3 
3 
3 
3 
3 
3 
3 
3 
3 
3 
3 
3 
3 
3 
3 
3 
3 
3 
3 
3 
3 
3 
3 
3 
3 
3 
3 
3 
3 
3 
3 
3 
3 
3 
3 
3 
3 
3 
3 
3 
3 
3 
3 
3 
3 
3 
3 
3 
3 
3 
3 
3 
3 
3 
3 
3 
3 
3 
3 
3 
3 
3 
3 
3 
3 
3 
3 
3 
3 
3 
3 
3 
3 
3 
3 
3 
3 
3 
3 
3 
3 
3 
3 
3 
3 
3 
3 
3 
3 
3 
3 
3 
3 
3 
3 
3 
3 
3 
3 
3 
3 
3 
POINT_DATA 50
SCALARS GMDS_ID int 1
LOOKUP_TABLE default
0 2 3 4 6 9 10 11 12 14 15 16 17 18 19 20 21 22 24 25 26 27 28 29 31 32 33 34 35 37 38 39 40 41 42 43 44 45 46 47 48 50 52 53 54 55 56 57 58 59 
SCALARS geom_link_dim_0 int 1
LOOKUP_TABLE default
0 0 0 0 0 0 0 0 0 0 0 0 0 0 0 0 0 0 0 0 0 0 0 0 0 0 0 0 0 0 0 0 0 0 0 0 0 0 0 0 0 0 0 0 0 0 0 0 0 0 
SCALARS geom_link_id_0 int 1
LOOKUP_TABLE default
0 0 0 0 0 0 0 0 0 0 0 0 0 0 0 0 0 0 0 0 0 0 0 0 0 0 0 0 0 0 0 0 0 0 0 0 0 0 0 0 0 0 0 0 0 0 0 0 0 0 


CELL_DATA 105
SCALARS GMDS_ID int 1
LOOKUP_TABLE default
0 1 4 6 8 9 10 12 13 14 17 18 19 20 21 23 24 25 26 28 30 31 32 34 36 37 38 39 40 42 44 46 51 52 55 56 57 58 59 60 61 63 68 70 73 74 79 80 81 82 83 84 85 86 87 88 89 90 91 92 93 94 95 96 97 98 99 100 101 102 103 106 107 110 111 113 117 118 119 120 121 122 124 125 127 128 129 130 131 132 133 134 135 136 137 138 139 140 141 142 143 144 145 146 147 

SCALARS geom_link_dim_0 int 1
LOOKUP_TABLE default
0 0 0 0 0 0 0 0 0 0 0 0 0 0 0 0 0 0 0 0 0 0 0 0 0 0 0 0 0 0 0 0 0 0 0 0 0 0 0 0 0 0 0 0 0 0 0 0 0 0 0 0 0 0 0 0 0 0 0 0 0 0 0 0 0 0 0 0 0 0 0 0 0 0 0 0 0 0 0 0 0 0 0 0 0 0 0 0 0 0 0 0 0 0 0 0 0 0 0 0 0 0 0 0 0 

SCALARS geom_link_id_0 int 1
LOOKUP_TABLE default
0 0 0 0 0 0 0 0 0 0 0 0 0 0 0 0 0 0 0 0 0 0 0 0 0 0 0 0 0 0 0 0 0 0 0 0 0 0 0 0 0 0 0 0 0 0 0 0 0 0 0 0 0 0 0 0 0 0 0 0 0 0 0 0 0 0 0 0 0 0 0 0 0 0 0 0 0 0 0 0 0 0 0 0 0 0 0 0 0 0 0 0 0 0 0 0 0 0 0 0 0 0 0 0 0 

