# vtk DataFile Version 3.0
Generated by GMDS VTK Writer

ASCII
DATASET UNSTRUCTURED_GRID
POINTS 32 float
5 -5 0
5 10 0
0 0 5
5 0 5
5 0 10
0 0 10
0 -5 0
0 10 0
5 10 5
5 -5 5
0 -5 5
0 10 5
5 0 0
0 0 0
10 0 0
5 0 -5
0 0 -5
10 0 5
-5 0 0
-5 0 5
5 5 0
0 5 0
0 5 5
5 5 5
0 5 10
5 5 10
10 5 0
5 5 -5
0 5 -5
10 5 5
-5 5 0
-5 5 5

CELLS 60 180
2 13 21
2 5 4
2 10 2
2 5 2
2 4 3
2 12 13
2 0 9
2 6 10
2 1 8
2 9 3
2 20 1
2 22 11
2 3 23
2 23 8
2 13 2
2 2 22
2 23 20
2 0 6
2 1 7
2 0 12
2 5 24
2 6 13
2 21 7
2 7 11
2 20 21
2 9 10
2 22 21
2 8 11
2 3 2
2 12 20
2 22 23
2 12 3
2 12 14
2 12 15
2 16 13
2 16 15
2 14 17
2 3 17
2 13 18
2 18 19
2 2 19
2 4 25
2 22 24
2 25 24
2 23 25
2 14 26
2 15 27
2 20 26
2 20 27
2 16 28
2 21 28
2 27 28
2 17 29
2 26 29
2 23 29
2 18 30
2 19 31
2 21 30
2 30 31
2 22 31

CELL_TYPES 60
3 
3 
3 
3 
3 
3 
3 
3 
3 
3 
3 
3 
3 
3 
3 
3 
3 
3 
3 
3 
3 
3 
3 
3 
3 
3 
3 
3 
3 
3 
3 
3 
3 
3 
3 
3 
3 
3 
3 
3 
3 
3 
3 
3 
3 
3 
3 
3 
3 
3 
3 
3 
3 
3 
3 
3 
3 
3 
3 
3 
POINT_DATA 32
SCALARS GMDS_ID int 1
LOOKUP_TABLE default
0 1 4 5 6 7 14 15 22 23 24 25 30 31 33 34 35 36 37 38 39 40 41 42 43 44 46 47 48 49 50 51 
SCALARS geom_link_dim int 1
LOOKUP_TABLE default
1 1 1 1 1 1 1 1 1 1 1 1 1 1 1 1 1 1 1 1 1 1 1 1 1 1 1 1 1 1 1 1 
SCALARS geom_link_id int 1
LOOKUP_TABLE default
31 9 14 23 24 20 28 4 7 32 27 3 26 12 29 25 19 30 11 13 10 1 2 8 16 15 21 17 18 22 5 6 


CELL_DATA 60
SCALARS GMDS_ID int 1
LOOKUP_TABLE default
2 3 4 6 7 11 12 14 18 19 20 21 22 23 25 28 30 32 34 35 37 39 44 47 49 50 51 52 56 57 65 67 75 76 80 81 84 85 90 91 92 94 96 97 98 101 103 106 107 109 111 112 113 115 116 117 119 121 122 123 

SCALARS geom_link_dim int 1
LOOKUP_TABLE default
2 2 2 2 2 2 2 2 2 2 2 2 2 2 2 2 2 2 2 2 2 2 2 2 2 2 2 2 2 2 2 2 2 2 2 2 2 2 2 2 2 2 2 2 2 2 2 2 2 2 2 2 2 2 2 2 2 2 2 2 

SCALARS geom_link_id int 1
LOOKUP_TABLE default
2 49 45 25 28 4 59 40 32 34 33 42 10 29 8 11 3 55 21 16 31 52 51 43 12 17 9 30 1 6 5 7 14 13 26 47 57 20 27 54 19 36 44 37 35 56 53 39 24 50 18 41 46 22 38 60 58 15 48 23 

