# vtk DataFile Version 3.0
Generated by GMDS VTK Writer

ASCII
DATASET UNSTRUCTURED_GRID
POINTS 32 float
0 0 10
0 0 0
0 5 5
0 10 0
0 0 5
0 5 -5
0 5 0
0 -5 5
5 -5 0
5 10 0
0 0 -5
5 -5 5
5 10 5
0 -5 0
5 0 -5
5 0 0
10 0 0
10 0 5
5 0 5
5 0 10
-5 0 0
-5 0 5
0 10 5
5 5 -5
5 5 0
10 5 0
10 5 5
5 5 5
5 5 10
0 5 10
-5 5 0
-5 5 5

CELLS 60 180
2 24 25
2 8 15
2 5 6
2 1 6
2 2 27
2 20 1
2 30 6
2 7 4
2 4 2
2 1 15
2 4 0
2 6 2
2 8 11
2 15 24
2 3 6
2 4 18
2 31 2
2 14 23
2 21 4
2 23 24
2 10 14
2 0 29
2 10 5
2 9 12
2 24 9
2 0 19
2 16 25
2 10 1
2 13 1
2 13 8
2 13 7
2 14 15
2 16 15
2 7 11
2 11 18
2 6 24
2 29 28
2 17 18
2 19 18
2 22 2
2 22 12
2 15 18
2 16 17
2 20 21
2 5 23
2 17 26
2 1 4
2 18 27
2 27 12
2 19 28
2 26 27
2 27 28
2 3 22
2 3 9
2 24 27
2 25 26
2 2 29
2 20 30
2 21 31
2 30 31

CELL_TYPES 60
3 
3 
3 
3 
3 
3 
3 
3 
3 
3 
3 
3 
3 
3 
3 
3 
3 
3 
3 
3 
3 
3 
3 
3 
3 
3 
3 
3 
3 
3 
3 
3 
3 
3 
3 
3 
3 
3 
3 
3 
3 
3 
3 
3 
3 
3 
3 
3 
3 
3 
3 
3 
3 
3 
3 
3 
3 
3 
3 
3 
POINT_DATA 32
SCALARS GMDS_ID int 1
LOOKUP_TABLE default
2 3 4 8 9 10 12 13 14 15 18 20 21 24 25 26 27 28 29 30 33 34 36 37 38 39 40 41 42 43 45 46 
SCALARS geom_link_dim int 1
LOOKUP_TABLE default
1 1 1 1 1 1 1 1 1 1 1 1 1 1 1 1 1 1 1 1 1 1 1 1 1 1 1 1 1 1 1 1 
SCALARS geom_link_id int 1
LOOKUP_TABLE default
20 12 2 4 14 18 1 27 31 9 19 32 7 28 25 26 29 30 23 24 11 13 3 17 10 21 22 8 15 16 5 6 


CELL_DATA 60
SCALARS GMDS_ID int 1
LOOKUP_TABLE default
0 3 4 5 6 7 8 11 12 14 16 20 21 22 23 24 26 28 29 30 31 34 37 39 41 42 43 46 50 52 54 55 56 57 60 62 64 66 67 68 69 70 71 81 83 87 88 89 90 91 95 96 97 98 99 100 102 103 108 110 

SCALARS geom_link_dim int 1
LOOKUP_TABLE default
2 2 2 2 2 2 2 2 2 2 2 2 2 2 2 2 2 2 2 2 2 2 2 2 2 2 2 2 2 2 2 2 2 2 2 2 2 2 2 2 2 2 2 2 2 2 2 2 2 2 2 2 2 2 2 2 2 2 2 2 

SCALARS geom_link_id int 1
LOOKUP_TABLE default
39 16 18 2 5 27 15 45 11 4 25 9 59 6 51 1 23 53 19 24 47 31 50 32 33 49 56 26 52 55 40 13 14 17 34 12 37 20 28 42 30 7 57 54 41 46 8 10 29 36 38 35 43 21 3 22 44 60 58 48 

