# vtk DataFile Version 3.0
Generated by GMDS VTK Writer

ASCII
DATASET UNSTRUCTURED_GRID
POINTS 38 float
5 -5 0
5 10 0
0 0 5
5 0 5
5 0 10
0 0 10
8.88178419700125e-16 10 -5
8.88178419700125e-16 -5 -5
10 10 -8.88178419700125e-16
0 -5 0
0 10 0
5 10 -5
5 -5 -5
5 10 5
5 -5 5
0 -5 5
0 10 5
10 10 5
5 0 0
0 0 0
10 0 0
5 0 -5
0 0 -5
10 0 5
-5 0 0
-5 0 5
5 5 0
0 5 0
0 5 5
5 5 5
0 5 10
5 5 10
10 5 0
5 5 -5
0 5 -5
10 5 5
-5 5 0
-5 5 5

CELLS 75 225
2 19 27
2 5 4
2 15 2
2 5 2
2 4 3
2 18 19
2 0 14
2 8 1
2 9 15
2 1 13
2 14 3
2 26 1
2 28 16
2 3 29
2 29 13
2 7 9
2 19 2
2 6 10
2 2 28
2 29 26
2 0 9
2 1 10
2 0 18
2 5 30
2 9 19
2 11 6
2 12 7
2 27 10
2 12 0
2 11 1
2 10 16
2 26 27
2 14 15
2 28 27
2 13 16
2 8 17
2 3 2
2 18 26
2 13 17
2 28 29
2 18 3
2 12 21
2 18 20
2 18 21
2 7 22
2 22 19
2 22 21
2 20 23
2 3 23
2 19 24
2 24 25
2 2 25
2 4 31
2 28 30
2 31 30
2 29 31
2 20 32
2 32 8
2 21 33
2 33 11
2 26 32
2 26 33
2 22 34
2 34 6
2 27 34
2 33 34
2 23 35
2 35 17
2 32 35
2 29 35
2 24 36
2 25 37
2 27 36
2 36 37
2 28 37

CELL_TYPES 75
3 
3 
3 
3 
3 
3 
3 
3 
3 
3 
3 
3 
3 
3 
3 
3 
3 
3 
3 
3 
3 
3 
3 
3 
3 
3 
3 
3 
3 
3 
3 
3 
3 
3 
3 
3 
3 
3 
3 
3 
3 
3 
3 
3 
3 
3 
3 
3 
3 
3 
3 
3 
3 
3 
3 
3 
3 
3 
3 
3 
3 
3 
3 
3 
3 
3 
3 
3 
3 
3 
3 
3 
3 
3 
3 
POINT_DATA 38
SCALARS GMDS_ID int 1
LOOKUP_TABLE default
0 1 4 5 6 7 8 9 12 14 15 20 21 22 23 24 25 26 30 31 33 34 35 36 37 38 39 40 41 42 43 44 46 47 48 49 50 51 
SCALARS geom_link_dim int 1
LOOKUP_TABLE default
1 1 1 1 1 1 0 0 0 1 1 0 0 1 1 1 1 0 1 1 1 1 1 1 1 1 1 1 1 1 1 1 1 1 1 1 1 1 
SCALARS geom_link_id int 1
LOOKUP_TABLE default
31 9 14 23 24 20 -1 -1 -1 28 4 -1 -1 7 32 27 3 -1 26 12 29 25 19 30 11 13 10 1 2 8 16 15 21 17 18 22 5 6 


CELL_DATA 75
SCALARS GMDS_ID int 1
LOOKUP_TABLE default
2 3 4 6 7 11 12 13 14 18 19 20 21 22 23 24 25 26 28 30 32 34 35 37 39 41 43 44 45 46 47 49 50 51 52 53 56 57 59 65 67 72 75 76 78 80 81 84 85 90 91 92 94 96 97 98 101 102 103 104 106 107 109 110 111 112 113 114 115 116 117 119 121 122 123 

SCALARS geom_link_dim int 1
LOOKUP_TABLE default
2 2 2 2 2 0 2 0 2 2 2 2 2 2 2 0 2 0 2 0 2 2 2 2 2 0 0 2 0 0 2 0 2 2 2 0 2 2 0 2 2 0 2 2 0 2 2 2 2 2 2 2 2 2 2 2 2 0 2 0 2 2 2 0 2 2 2 0 2 2 2 2 2 2 2 

SCALARS geom_link_id int 1
LOOKUP_TABLE default
2 49 45 25 28 0 59 0 40 32 34 33 42 10 29 0 8 0 11 0 55 21 16 31 52 0 0 51 0 0 43 0 17 9 30 0 1 6 0 5 7 0 14 13 0 26 47 57 20 27 54 19 36 44 37 35 56 0 53 0 39 24 50 0 18 41 46 0 22 38 60 58 15 48 23 

