# vtk DataFile Version 3.0
Generated by GMDS VTK Writer

ASCII
DATASET UNSTRUCTURED_GRID
POINTS 44 float
5 0 5
10 -5 -5
10 0 5
-5 10 10
10 -4.44089209850063e-16 -5
-5 5 -5
-5 5 10
5 -5 -5
5 5 10
5 5 -5
5 10 10
0 -5 -5
0 5 10
0 5 -5
0 10 10
5 0 10
5 0 -5
0 0 -5
0 0 10
-5 -4.44089209850063e-16 -5
5 5 5
10 5 5
5 -5 5
5 10 5
0 10 5
0 5 5
-5 10 5
-5 5 5
-5 0 5
0 0 5
0 -5 5
10 0 0
5 0 0
5 5 0
10 5 0
10 -5 -4.44089209850063e-16
5 -5 0
5 10 0
0 10 0
0 5 0
-5 5 0
-5 0 0
0 0 0
0 -5 0

CELLS 89 267
2 7 11
2 12 6
2 33 20
2 1 7
2 8 12
2 16 32
2 21 20
2 20 0
2 6 3
2 20 8
2 1 4
2 31 34
2 31 2
2 16 9
2 32 0
2 9 33
2 33 32
2 2 0
2 7 16
2 15 8
2 10 8
2 34 21
2 9 13
2 13 5
2 4 31
2 2 21
2 34 33
2 10 14
2 14 3
2 12 14
2 31 32
2 4 16
2 11 17
2 17 13
2 18 12
2 0 15
2 19 5
2 1 35
2 19 17
2 15 18
2 16 17
2 22 0
2 23 10
2 24 14
2 25 12
2 20 23
2 23 24
2 25 24
2 20 25
2 26 3
2 27 6
2 26 24
2 26 27
2 27 25
2 29 18
2 29 28
2 25 29
2 27 28
2 22 30
2 30 29
2 0 29
2 7 36
2 36 22
2 35 36
2 36 32
2 35 31
2 37 23
2 38 24
2 13 39
2 39 25
2 33 37
2 37 38
2 39 38
2 33 39
2 5 40
2 40 27
2 40 39
2 19 41
2 41 28
2 17 42
2 42 29
2 42 41
2 39 42
2 40 41
2 11 43
2 43 30
2 36 43
2 43 42
2 32 42

CELL_TYPES 89
3 
3 
3 
3 
3 
3 
3 
3 
3 
3 
3 
3 
3 
3 
3 
3 
3 
3 
3 
3 
3 
3 
3 
3 
3 
3 
3 
3 
3 
3 
3 
3 
3 
3 
3 
3 
3 
3 
3 
3 
3 
3 
3 
3 
3 
3 
3 
3 
3 
3 
3 
3 
3 
3 
3 
3 
3 
3 
3 
3 
3 
3 
3 
3 
3 
3 
3 
3 
3 
3 
3 
3 
3 
3 
3 
3 
3 
3 
3 
3 
3 
3 
3 
3 
3 
3 
3 
3 
3 
POINT_DATA 44
SCALARS GMDS_ID int 1
LOOKUP_TABLE default
0 3 4 5 6 8 9 12 14 15 16 18 20 21 22 24 25 26 27 29 30 31 33 34 35 36 37 38 39 40 41 42 43 44 45 46 47 48 49 50 52 53 54 55 
SCALARS geom_link_dim_0 int 1
LOOKUP_TABLE default
0 0 0 0 0 0 0 0 0 0 0 0 0 0 0 0 0 0 0 0 0 0 0 0 0 0 0 0 0 0 0 0 0 0 0 0 0 0 0 0 0 0 0 0 
SCALARS geom_link_id_0 int 1
LOOKUP_TABLE default
0 0 0 0 0 0 0 0 0 0 0 0 0 0 0 0 0 0 0 0 0 0 0 0 0 0 0 0 0 0 0 0 0 0 0 0 0 0 0 0 0 0 0 0 


CELL_DATA 89
SCALARS GMDS_ID int 1
LOOKUP_TABLE default
1 3 4 6 7 11 12 14 15 18 19 20 22 25 27 28 30 31 33 35 36 37 39 40 41 42 43 45 46 49 50 52 53 54 56 57 60 61 64 65 66 71 74 76 78 79 80 81 82 84 86 87 88 89 93 94 95 96 99 100 101 102 103 104 105 106 108 110 111 112 113 114 115 116 119 120 123 124 125 126 127 128 129 130 131 132 133 134 135 

SCALARS geom_link_dim_0 int 1
LOOKUP_TABLE default
0 0 0 0 0 0 0 0 0 0 0 0 0 0 0 0 0 0 0 0 0 0 0 0 0 0 0 0 0 0 0 0 0 0 0 0 0 0 0 0 0 0 0 0 0 0 0 0 0 0 0 0 0 0 0 0 0 0 0 0 0 0 0 0 0 0 0 0 0 0 0 0 0 0 0 0 0 0 0 0 0 0 0 0 0 0 0 0 0 

SCALARS geom_link_id_0 int 1
LOOKUP_TABLE default
0 0 0 0 0 0 0 0 0 0 0 0 0 0 0 0 0 0 0 0 0 0 0 0 0 0 0 0 0 0 0 0 0 0 0 0 0 0 0 0 0 0 0 0 0 0 0 0 0 0 0 0 0 0 0 0 0 0 0 0 0 0 0 0 0 0 0 0 0 0 0 0 0 0 0 0 0 0 0 0 0 0 0 0 0 0 0 0 0 

