# vtk DataFile Version 3.0
Generated by GMDS VTK Writer

ASCII
DATASET UNSTRUCTURED_GRID
POINTS 44 float
-5 -5 -5
-5 10 -5
10 10 -5
10 -5 -5
-5 -5 10
-5 10 10
8.88178419700125e-16 10 -5
8.88178419700125e-16 -5 -5
5 10 -5
5 -5 -5
5 -5 10
10 10 -8.88178419700125e-16
10 -5 -8.88178419700125e-16
5 -5 0
5 10 0
-5 -5 -8.88178419700125e-16
-5 10 -8.88178419700125e-16
10 10 5
10 -5 5
5 -5 5
5 10 5
-5 -5 5
-5 10 5
0 10 0
0 -5 0
0 10 5
0 -5 5
8.88178419700125e-16 10 10
8.88178419700125e-16 -5 10
10 5 -5
5 5 -5
5 5 0
10 5 0
5 5 5
10 5 5
0 5 -5
0 5 0
-5 5 -5
-5 5 0
-5 5 5
0 5 5
-5 5 10
0 5 10
5 5 10

CELLS 93 279
2 3 12
2 6 23
2 2 11
2 16 23
2 24 13
2 19 10
2 6 8
2 7 9
2 11 17
2 2 8
2 13 31
2 3 9
2 12 32
2 1 6
2 3 29
2 0 7
2 29 2
2 13 19
2 12 18
2 9 13
2 8 14
2 12 13
2 11 14
2 0 15
2 15 24
2 1 16
2 23 14
2 32 11
2 31 14
2 14 20
2 18 19
2 17 20
2 15 21
2 21 4
2 16 22
2 22 5
2 30 8
2 9 30
2 7 24
2 22 25
2 25 20
2 21 26
2 26 19
2 23 25
2 24 26
2 5 27
2 4 28
2 28 10
2 27 25
2 28 26
2 29 30
2 30 31
2 32 31
2 29 32
2 19 33
2 33 20
2 18 34
2 34 17
2 31 33
2 34 33
2 32 34
2 7 35
2 35 6
2 24 36
2 36 23
2 35 36
2 31 36
2 35 30
2 0 37
2 37 1
2 15 38
2 38 16
2 37 38
2 38 36
2 37 35
2 21 39
2 39 22
2 26 40
2 40 25
2 38 39
2 39 40
2 36 40
2 33 40
2 4 41
2 41 5
2 28 42
2 42 27
2 41 39
2 40 42
2 41 42
2 10 43
2 43 33
2 43 42

CELL_TYPES 93
3 
3 
3 
3 
3 
3 
3 
3 
3 
3 
3 
3 
3 
3 
3 
3 
3 
3 
3 
3 
3 
3 
3 
3 
3 
3 
3 
3 
3 
3 
3 
3 
3 
3 
3 
3 
3 
3 
3 
3 
3 
3 
3 
3 
3 
3 
3 
3 
3 
3 
3 
3 
3 
3 
3 
3 
3 
3 
3 
3 
3 
3 
3 
3 
3 
3 
3 
3 
3 
3 
3 
3 
3 
3 
3 
3 
3 
3 
3 
3 
3 
3 
3 
3 
3 
3 
3 
3 
3 
3 
3 
3 
3 
POINT_DATA 44
SCALARS GMDS_ID int 1
LOOKUP_TABLE default
0 1 2 3 4 5 6 7 8 9 10 12 13 14 15 16 17 18 19 20 21 22 23 24 25 26 27 28 29 30 31 32 33 34 35 36 37 38 39 40 41 42 43 44 
SCALARS geom_link_dim int 1
LOOKUP_TABLE default
0 0 0 0 0 0 0 0 0 0 0 0 0 1 1 0 0 0 0 1 1 0 0 1 1 1 1 0 0 0 1 0 1 1 1 1 0 0 1 1 1 0 1 1 
SCALARS geom_link_id int 1
LOOKUP_TABLE default
-1 -1 -1 -1 -1 -1 -1 -1 -1 -1 -1 -1 -1 31 9 -1 -1 -1 -1 32 7 -1 -1 4 28 3 27 -1 -1 -1 17 0 21 8 22 18 0 -1 5 6 2 -1 16 15 


CELL_DATA 93
SCALARS GMDS_ID int 1
LOOKUP_TABLE default
1 3 5 6 7 8 9 10 11 12 13 14 15 16 17 18 19 21 23 24 26 29 31 32 33 34 35 36 38 39 42 44 45 46 47 48 49 51 52 53 54 55 56 57 59 60 62 63 64 66 67 68 69 70 71 72 73 74 75 76 77 78 79 80 81 82 83 84 85 86 87 88 89 90 91 92 93 94 95 96 97 98 99 100 101 102 103 104 105 106 107 109 110 

SCALARS geom_link_dim int 1
LOOKUP_TABLE default
0 0 0 0 2 0 0 0 0 0 0 0 0 0 0 0 0 2 0 0 0 0 0 0 0 0 2 0 0 2 0 0 0 0 0 0 0 0 0 0 2 0 2 2 2 0 0 0 0 0 0 0 0 0 0 2 0 0 0 2 2 0 0 0 0 0 0 2 0 0 0 0 0 0 0 0 0 0 2 2 0 0 2 0 0 0 0 0 2 0 0 2 2 

SCALARS geom_link_id int 1
LOOKUP_TABLE default
0 0 0 0 55 0 0 0 0 0 0 0 0 0 0 0 0 59 0 0 0 0 0 0 0 0 21 0 0 32 0 0 0 0 0 0 0 0 0 0 30 0 17 43 40 0 0 0 0 0 0 0 0 0 0 29 0 0 0 38 22 0 0 0 0 0 0 41 0 0 0 0 0 0 0 0 0 0 42 48 0 0 5 0 0 0 0 0 44 0 0 35 37 

