# vtk DataFile Version 3.0
Generated by GMDS VTK Writer

ASCII
DATASET UNSTRUCTURED_GRID
POINTS 40 float
-5 -5 -5
-5 -5 10
-5 -8.88178419700125e-16 -5
-5 -8.88178419700125e-16 10
-5 -5 -8.88178419700125e-16
10 0 0
-5 0 0
-5 -5 5
10 0 5
-5 0 5
10 5 0
-5 5 0
-5 5 5
10 5 5
0 10 0
0 5 0
0 5 -5
0 -5 0
0 0 0
0 0 5
0 -5 5
-8.88178419700125e-16 -5 -5
0 0 -5
0 0 10
-8.88178419700125e-16 -5 10
0 10 5
0 5 5
0 5 10
5 10 0
5 5 0
5 5 -5
5 -5 0
5 0 0
5 0 5
5 -5 5
5 0 -5
5 0 10
5 10 5
5 5 5
5 5 10

CELLS 78 234
2 18 32
2 15 29
2 0 4
2 5 8
2 7 1
2 0 2
2 1 3
2 11 15
2 28 29
2 17 31
2 2 6
2 10 5
2 32 5
2 4 6
2 14 28
2 6 9
2 9 3
2 29 30
2 7 9
2 11 6
2 16 30
2 12 9
2 13 8
2 11 12
2 10 13
2 29 10
2 14 15
2 16 15
2 4 17
2 6 18
2 9 19
2 7 20
2 17 18
2 18 19
2 20 19
2 17 20
2 0 21
2 2 22
2 21 22
2 22 18
2 21 17
2 3 23
2 1 24
2 23 19
2 24 23
2 24 20
2 18 15
2 22 16
2 12 26
2 14 25
2 25 26
2 15 26
2 19 26
2 26 27
2 23 27
2 19 33
2 33 8
2 20 34
2 31 32
2 32 33
2 33 34
2 31 34
2 22 35
2 32 35
2 23 36
2 33 36
2 29 32
2 30 35
2 25 37
2 26 38
2 38 13
2 28 37
2 37 38
2 29 38
2 33 38
2 27 39
2 38 39
2 36 39

CELL_TYPES 78
3 
3 
3 
3 
3 
3 
3 
3 
3 
3 
3 
3 
3 
3 
3 
3 
3 
3 
3 
3 
3 
3 
3 
3 
3 
3 
3 
3 
3 
3 
3 
3 
3 
3 
3 
3 
3 
3 
3 
3 
3 
3 
3 
3 
3 
3 
3 
3 
3 
3 
3 
3 
3 
3 
3 
3 
3 
3 
3 
3 
3 
3 
3 
3 
3 
3 
3 
3 
3 
3 
3 
3 
3 
3 
3 
3 
3 
3 
POINT_DATA 40
SCALARS GMDS_ID int 1
LOOKUP_TABLE default
0 1 2 3 4 6 7 8 10 11 12 13 14 15 16 17 18 19 20 21 22 23 24 25 26 27 28 29 30 31 32 33 34 35 36 37 38 39 40 41 
SCALARS geom_link_dim int 1
LOOKUP_TABLE default
0 0 0 0 0 1 1 0 1 1 1 1 1 1 1 1 1 1 1 1 1 0 1 1 0 1 1 1 1 1 1 1 1 1 1 1 1 1 1 1 
SCALARS geom_link_id int 1
LOOKUP_TABLE default
-1 -1 -1 -1 -1 29 11 -1 30 13 21 5 6 22 4 1 18 28 12 14 27 -1 19 20 -1 3 2 16 9 10 17 31 26 23 32 25 24 7 8 15 


CELL_DATA 78
SCALARS GMDS_ID int 1
LOOKUP_TABLE default
0 1 2 3 4 6 7 8 9 10 11 12 13 16 17 18 19 21 22 23 24 25 26 27 28 29 30 31 32 33 34 35 36 37 38 39 40 41 42 43 44 45 46 47 48 49 50 51 52 53 54 55 56 57 58 59 60 61 63 64 65 66 67 68 69 70 71 72 73 74 75 76 77 78 79 80 81 82 

SCALARS geom_link_dim int 1
LOOKUP_TABLE default
2 2 0 2 0 0 0 2 2 2 0 2 2 0 2 2 0 2 0 2 2 2 2 2 2 2 2 2 0 2 2 0 2 2 2 2 0 0 0 2 0 0 0 2 0 0 2 2 2 2 2 2 2 2 2 2 2 2 2 2 2 2 2 2 2 2 2 2 2 2 2 2 2 2 2 2 2 2 

SCALARS geom_link_id int 1
LOOKUP_TABLE default
4 12 0 57 0 0 0 15 33 55 0 56 14 0 21 54 0 24 0 60 41 58 46 48 22 39 51 18 0 27 19 0 52 8 45 40 0 0 0 26 0 0 0 25 0 0 2 50 23 43 42 9 11 44 31 1 20 17 16 7 34 59 47 13 49 28 6 53 30 5 38 32 29 3 10 37 35 36 

