# vtk DataFile Version 3.0
Generated by GMDS VTK Writer

ASCII
DATASET UNSTRUCTURED_GRID
POINTS 48 float
-5 -5 -5
-5 10 -5
10 10 -5
10 -5 -5
-5 -5 10
-5 10 10
10 10 10
10 -5 10
-5 -8.88178419700125e-16 -5
-5 -8.88178419700125e-16 10
10 -8.88178419700125e-16 10
10 -8.88178419700125e-16 -5
5 -5 -5
5 -5 10
5 0 10
5 0 -5
5 10 10
5 10 -5
10 5 10
10 5 -5
5 5 -5
5 5 10
-5 5 -5
-5 5 10
10 5 5
5 5 5
5 10 5
10 10 5
10 0 5
5 0 5
10 -5 5
5 -5 5
-5 0 5
-5 -5 5
-5 5 5
-5 10 5
4.44089209850063e-16 -5 -5
0 0 -5
-4.44089209850063e-16 0 5
0 -5 5
0 0 10
4.44089209850063e-16 -5 10
0 5 -5
-4.44089209850063e-16 5 5
0 5 10
4.44089209850063e-16 10 -5
0 10 5
4.44089209850063e-16 10 10

CELLS 104 312
2 10 18
2 7 13
2 20 17
2 18 6
2 3 12
2 15 20
2 37 38
2 36 12
2 37 15
2 0 36
2 0 8
2 26 16
2 4 9
2 25 21
2 7 10
2 24 18
2 3 11
2 19 24
2 36 39
2 11 19
2 8 37
2 19 2
2 10 14
2 11 15
2 36 37
2 13 14
2 38 39
2 12 15
2 6 16
2 2 17
2 20 25
2 32 38
2 17 26
2 14 21
2 21 16
2 38 29
2 19 20
2 33 39
2 18 21
2 8 22
2 22 1
2 9 23
2 23 5
2 39 31
2 2 27
2 27 6
2 24 25
2 26 25
2 27 26
2 27 24
2 11 28
2 28 10
2 15 29
2 29 14
2 28 29
2 29 25
2 28 24
2 3 30
2 30 7
2 12 31
2 31 13
2 30 28
2 31 29
2 30 31
2 8 32
2 32 9
2 0 33
2 33 4
2 33 32
2 22 34
2 34 23
2 32 34
2 1 35
2 35 5
2 35 34
2 9 40
2 40 14
2 4 41
2 41 13
2 40 38
2 41 40
2 41 39
2 22 42
2 42 20
2 34 43
2 43 25
2 37 42
2 42 43
2 38 43
2 23 44
2 44 21
2 44 43
2 40 44
2 1 45
2 45 17
2 35 46
2 46 26
2 45 42
2 43 46
2 45 46
2 5 47
2 47 16
2 47 44
2 47 46

CELL_TYPES 104
3 
3 
3 
3 
3 
3 
3 
3 
3 
3 
3 
3 
3 
3 
3 
3 
3 
3 
3 
3 
3 
3 
3 
3 
3 
3 
3 
3 
3 
3 
3 
3 
3 
3 
3 
3 
3 
3 
3 
3 
3 
3 
3 
3 
3 
3 
3 
3 
3 
3 
3 
3 
3 
3 
3 
3 
3 
3 
3 
3 
3 
3 
3 
3 
3 
3 
3 
3 
3 
3 
3 
3 
3 
3 
3 
3 
3 
3 
3 
3 
3 
3 
3 
3 
3 
3 
3 
3 
3 
3 
3 
3 
3 
3 
3 
3 
3 
3 
3 
3 
3 
3 
3 
3 
POINT_DATA 48
SCALARS GMDS_ID int 1
LOOKUP_TABLE default
0 1 2 3 4 5 6 7 8 9 10 11 12 13 14 15 16 17 18 19 20 21 22 23 24 25 26 27 28 29 30 31 32 33 34 35 36 37 38 39 40 41 42 43 44 45 46 47 
SCALARS geom_link_dim int 1
LOOKUP_TABLE default
0 0 0 0 0 0 0 0 0 0 0 0 0 0 1 1 0 0 0 0 1 1 0 0 1 0 1 0 1 0 0 1 1 0 1 0 0 1 0 1 1 0 1 0 1 0 1 0 
SCALARS geom_link_id int 1
LOOKUP_TABLE default
-1 -1 -1 -1 -1 -1 -1 -1 -1 -1 -1 -1 -1 -1 24 25 -1 -1 -1 -1 17 15 -1 -1 22 0 7 -1 30 0 -1 32 13 -1 6 -1 -1 19 -1 27 20 -1 18 -1 16 -1 3 -1 


CELL_DATA 104
SCALARS GMDS_ID int 1
LOOKUP_TABLE default
1 2 3 5 6 7 8 9 10 11 12 13 14 15 16 17 18 19 20 21 22 23 24 26 28 29 30 31 32 34 36 37 38 39 40 41 42 43 44 45 46 47 48 50 52 53 54 55 56 57 58 59 60 61 62 63 64 65 66 67 68 69 70 71 72 73 74 75 77 79 80 82 83 84 86 87 88 89 90 91 92 93 94 95 96 97 98 99 100 101 102 103 104 105 106 107 108 109 110 111 112 113 114 115 

SCALARS geom_link_dim int 1
LOOKUP_TABLE default
0 0 0 0 0 2 0 0 2 0 0 0 0 0 0 0 0 0 0 0 0 0 0 0 0 0 0 0 0 0 0 0 0 2 0 0 0 0 0 0 0 0 0 2 0 0 0 0 0 0 0 0 0 0 0 0 2 0 0 0 0 0 0 0 0 0 0 0 0 0 0 2 0 0 0 0 2 0 0 0 0 0 0 2 0 0 2 0 0 0 2 0 2 0 0 0 2 0 0 0 0 0 0 0 

SCALARS geom_link_id int 1
LOOKUP_TABLE default
0 0 0 0 0 53 -1 -1 47 -1 0 0 0 0 0 0 0 0 -1 0 -1 0 0 0 -1 0 -1 0 0 0 0 -1 0 36 0 -1 0 -1 0 0 0 0 0 17 0 0 0 0 0 0 0 0 0 0 0 0 46 0 0 0 0 0 0 0 0 0 0 0 0 0 0 58 0 0 0 -1 49 -1 -1 -1 -1 -1 -1 41 -1 -1 50 -1 -1 -1 37 -1 31 -1 -1 -1 30 -1 -1 -1 -1 -1 -1 -1 

