# vtk DataFile Version 3.0
Generated by GMDS VTK Writer

ASCII
DATASET UNSTRUCTURED_GRID
POINTS 52 float
5 -5 0
5 10 0
10 10 -5
10 -5 -5
0 0 5
5 0 5
5 0 10
0 0 10
8.88178419700125e-16 10 -5
8.88178419700125e-16 -5 -5
8.88178419700125e-16 -5 10
8.88178419700125e-16 10 10
10 10 -8.88178419700125e-16
10 -5 -8.88178419700125e-16
0 -5 0
0 10 0
-5 -5 -8.88178419700125e-16
-5 10 -8.88178419700125e-16
5 -5 10
5 10 10
5 10 -5
5 -5 -5
5 10 5
5 -5 5
0 -5 5
0 10 5
10 10 5
10 -5 5
-5 -5 5
-5 10 5
5 -8.88178419700125e-16 0
0 0 0
10 -8.88178419700125e-16 -5
10 0 0
5 0 -5
0 0 -5
10 0 5
-5 0 0
-5 0 5
5 5 0
0 5 0
0 5 5
5 5 5
0 5 10
5 5 10
10 5 -5
10 5 0
5 5 -5
0 5 -5
10 5 5
-5 5 0
-5 5 5

CELLS 111 333
2 13 0
2 3 13
2 31 40
2 7 6
2 24 4
2 2 12
2 7 4
2 6 5
2 18 10
2 19 11
2 30 31
2 0 23
2 12 1
2 14 24
2 22 19
2 10 7
2 1 22
2 23 5
2 39 1
2 41 25
2 5 42
2 42 22
2 9 14
2 31 4
2 8 15
2 4 41
2 24 10
2 42 39
2 23 18
2 0 14
2 1 15
2 0 30
2 16 14
2 7 43
2 17 15
2 14 31
2 2 20
2 20 8
2 3 21
2 21 9
2 40 15
2 21 0
2 20 1
2 15 25
2 25 11
2 39 40
2 23 24
2 41 40
2 22 25
2 12 26
2 18 6
2 13 27
2 5 4
2 30 39
2 23 27
2 22 26
2 16 28
2 17 29
2 24 28
2 41 42
2 25 29
2 30 5
2 3 32
2 13 33
2 21 34
2 32 33
2 30 33
2 30 34
2 32 34
2 9 35
2 35 31
2 35 34
2 27 36
2 33 36
2 5 36
2 16 37
2 28 38
2 31 37
2 37 38
2 4 38
2 43 11
2 6 44
2 44 19
2 41 43
2 44 43
2 42 44
2 32 45
2 45 2
2 33 46
2 46 12
2 34 47
2 47 20
2 45 46
2 39 46
2 39 47
2 45 47
2 35 48
2 48 8
2 40 48
2 47 48
2 36 49
2 49 26
2 46 49
2 42 49
2 37 50
2 50 17
2 38 51
2 51 29
2 40 50
2 50 51
2 41 51

CELL_TYPES 111
3 
3 
3 
3 
3 
3 
3 
3 
3 
3 
3 
3 
3 
3 
3 
3 
3 
3 
3 
3 
3 
3 
3 
3 
3 
3 
3 
3 
3 
3 
3 
3 
3 
3 
3 
3 
3 
3 
3 
3 
3 
3 
3 
3 
3 
3 
3 
3 
3 
3 
3 
3 
3 
3 
3 
3 
3 
3 
3 
3 
3 
3 
3 
3 
3 
3 
3 
3 
3 
3 
3 
3 
3 
3 
3 
3 
3 
3 
3 
3 
3 
3 
3 
3 
3 
3 
3 
3 
3 
3 
3 
3 
3 
3 
3 
3 
3 
3 
3 
3 
3 
3 
3 
3 
3 
3 
3 
3 
3 
3 
3 
POINT_DATA 52
SCALARS GMDS_ID int 1
LOOKUP_TABLE default
0 1 2 3 4 5 6 7 8 9 10 11 12 13 14 15 16 17 18 19 20 21 22 23 24 25 26 27 28 29 30 31 32 33 34 35 36 37 38 39 40 41 42 43 44 45 46 47 48 49 50 51 
SCALARS geom_link_dim int 1
LOOKUP_TABLE default
1 1 0 0 1 1 1 1 0 0 0 0 0 0 1 1 0 0 0 0 0 0 1 1 1 1 0 0 0 0 0 1 0 1 1 1 1 1 1 0 1 1 1 1 1 0 1 1 1 1 1 1 
SCALARS geom_link_id int 1
LOOKUP_TABLE default
31 9 -1 -1 14 23 24 20 -1 -1 -1 -1 -1 -1 28 4 -1 -1 -1 -1 -1 -1 7 32 27 3 -1 -1 -1 -1 0 12 -1 29 25 19 30 11 13 -1 1 2 8 16 15 -1 21 17 18 22 5 6 


CELL_DATA 111
SCALARS GMDS_ID int 1
LOOKUP_TABLE default
0 1 2 3 4 5 6 7 9 10 11 12 13 14 16 17 18 19 20 21 22 23 24 25 26 28 29 30 31 32 34 35 36 37 38 39 40 41 42 43 44 45 46 47 48 49 50 51 52 53 54 55 56 57 58 59 60 62 64 65 66 67 68 70 72 74 75 76 77 78 80 81 82 84 85 86 88 90 91 92 93 94 95 96 97 98 99 100 101 102 103 104 105 106 107 108 109 110 111 112 113 114 115 116 117 118 119 120 121 122 123 

SCALARS geom_link_dim int 1
LOOKUP_TABLE default
0 0 2 2 2 0 2 2 0 0 0 2 0 2 0 0 2 2 0 2 2 2 0 0 0 2 0 0 0 2 2 0 0 2 0 2 0 0 0 0 2 0 0 2 0 0 2 0 2 0 0 0 0 0 0 0 0 0 0 0 0 0 0 0 0 0 0 0 0 0 2 2 0 2 2 0 0 2 2 2 0 2 0 2 2 2 0 0 2 0 2 0 0 0 0 0 2 0 2 2 2 0 2 2 2 0 2 0 2 2 2 

SCALARS geom_link_id int 1
LOOKUP_TABLE default
0 0 2 49 45 0 25 28 0 0 0 59 0 40 0 0 32 34 -1 42 10 29 0 0 0 11 0 -1 0 55 21 0 0 31 0 52 0 0 0 0 51 0 0 43 0 -1 17 -1 30 0 0 0 0 -1 0 0 0 0 0 -1 0 0 0 0 0 0 0 0 0 0 26 47 0 57 20 0 0 27 54 19 -1 36 -1 44 37 35 -1 -1 56 -1 53 -1 -1 -1 -1 -1 50 -1 18 41 46 -1 22 38 60 -1 58 -1 15 48 23 

