# vtk DataFile Version 3.0
Generated by GMDS VTK Writer

ASCII
DATASET UNSTRUCTURED_GRID
POINTS 44 float
5 -5 0
5 10 0
0 0 5
5 0 5
5 0 10
0 0 10
8.88178419700125e-16 10 -5
8.88178419700125e-16 -5 -5
8.88178419700125e-16 -5 10
10 10 -8.88178419700125e-16
10 -5 -8.88178419700125e-16
0 -5 0
0 10 0
-5 -5 -8.88178419700125e-16
5 -5 10
5 10 -5
5 -5 -5
5 10 5
5 -5 5
0 -5 5
0 10 5
10 10 5
10 -5 5
-5 -5 5
5 0 0
0 0 0
10 0 0
5 0 -5
0 0 -5
10 0 5
-5 0 0
-5 0 5
5 5 0
0 5 0
0 5 5
5 5 5
0 5 10
5 5 10
10 5 0
5 5 -5
0 5 -5
10 5 5
-5 5 0
-5 5 5

CELLS 90 270
2 10 0
2 25 33
2 5 4
2 19 2
2 5 2
2 4 3
2 14 8
2 24 25
2 0 18
2 9 1
2 11 19
2 8 5
2 1 17
2 18 3
2 32 1
2 34 20
2 3 35
2 35 17
2 7 11
2 25 2
2 6 12
2 2 34
2 19 8
2 35 32
2 18 14
2 0 11
2 1 12
2 0 24
2 13 11
2 5 36
2 11 25
2 15 6
2 16 7
2 33 12
2 16 0
2 15 1
2 12 20
2 32 33
2 18 19
2 34 33
2 17 20
2 9 21
2 14 4
2 10 22
2 3 2
2 24 32
2 18 22
2 17 21
2 13 23
2 19 23
2 34 35
2 24 3
2 10 26
2 16 27
2 24 26
2 24 27
2 7 28
2 28 25
2 28 27
2 22 29
2 26 29
2 3 29
2 13 30
2 23 31
2 25 30
2 30 31
2 2 31
2 4 37
2 34 36
2 37 36
2 35 37
2 26 38
2 38 9
2 27 39
2 39 15
2 32 38
2 32 39
2 28 40
2 40 6
2 33 40
2 39 40
2 29 41
2 41 21
2 38 41
2 35 41
2 30 42
2 31 43
2 33 42
2 42 43
2 34 43

CELL_TYPES 90
3 
3 
3 
3 
3 
3 
3 
3 
3 
3 
3 
3 
3 
3 
3 
3 
3 
3 
3 
3 
3 
3 
3 
3 
3 
3 
3 
3 
3 
3 
3 
3 
3 
3 
3 
3 
3 
3 
3 
3 
3 
3 
3 
3 
3 
3 
3 
3 
3 
3 
3 
3 
3 
3 
3 
3 
3 
3 
3 
3 
3 
3 
3 
3 
3 
3 
3 
3 
3 
3 
3 
3 
3 
3 
3 
3 
3 
3 
3 
3 
3 
3 
3 
3 
3 
3 
3 
3 
3 
3 
POINT_DATA 44
SCALARS GMDS_ID int 1
LOOKUP_TABLE default
0 1 4 5 6 7 8 9 10 12 13 14 15 16 18 20 21 22 23 24 25 26 27 28 30 31 33 34 35 36 37 38 39 40 41 42 43 44 46 47 48 49 50 51 
SCALARS geom_link_dim int 1
LOOKUP_TABLE default
1 1 1 1 1 1 0 0 0 0 0 1 1 0 0 0 0 1 1 1 1 0 0 0 1 1 1 1 1 1 1 1 1 1 1 1 1 1 1 1 1 1 1 1 
SCALARS geom_link_id int 1
LOOKUP_TABLE default
31 9 14 23 24 20 -1 -1 -1 -1 -1 28 4 -1 -1 -1 -1 7 32 27 3 -1 -1 -1 26 12 29 25 19 30 11 13 10 1 2 8 16 15 21 17 18 22 5 6 


CELL_DATA 90
SCALARS GMDS_ID int 1
LOOKUP_TABLE default
0 2 3 4 6 7 9 11 12 13 14 17 18 19 20 21 22 23 24 25 26 28 29 30 31 32 34 35 36 37 39 41 43 44 45 46 47 49 50 51 52 53 54 55 56 57 58 59 60 64 65 67 70 72 75 76 78 80 81 82 84 85 86 88 90 91 92 94 96 97 98 101 102 103 104 106 107 109 110 111 112 113 114 115 116 117 119 121 122 123 

SCALARS geom_link_dim int 1
LOOKUP_TABLE default
0 2 2 2 2 2 0 0 2 0 2 0 2 2 2 2 2 2 0 0 0 2 0 0 0 2 2 2 0 2 2 0 0 2 0 0 2 0 2 2 2 0 0 0 0 2 0 0 0 0 2 0 0 0 2 2 0 2 2 0 2 2 0 0 2 2 2 2 2 2 2 2 0 2 0 2 2 2 0 2 2 2 0 2 2 2 2 2 2 2 

SCALARS geom_link_id int 1
LOOKUP_TABLE default
0 2 49 45 25 28 0 0 59 0 40 0 32 34 33 42 10 29 0 0 0 11 0 0 0 55 21 16 0 31 52 0 0 51 0 0 43 0 17 9 30 0 0 0 0 6 0 0 0 0 5 0 0 0 14 13 0 26 47 0 57 20 0 0 27 54 19 36 44 37 35 56 0 53 0 39 24 50 0 18 41 46 0 22 38 60 58 15 48 23 

