# vtk DataFile Version 3.0
Generated by GMDS VTK Writer

ASCII
DATASET UNSTRUCTURED_GRID
POINTS 47 float
5 -5 0
10 -5 -5
10 -5 -8.88178419700125e-16
5 -5 -5
5 -5 10
5 10 10
10 5 -5
5 5 10
5 5 -5
-5 5 10
-5 5 -5
5 5 0
10 5 0
-5 -5 -8.88178419700125e-16
-5 5 0
5 10 0
0 5 -5
0 5 0
0 -5 0
0 5 10
8.88178419700125e-16 -5 10
0 10 0
8.88178419700125e-16 10 10
10 0 0
5 0 0
5 0 10
0 0 -5
0 0 0
5 0 -5
-5 -4.44089209850063e-16 -5
-5 0 0
10 -4.44089209850063e-16 -5
-5 -4.44089209850063e-16 10
0 0 10
10 0 5
5 0 5
5 5 5
10 5 5
5 -5 5
-5 5 5
0 5 5
0 10 5
5 10 5
-5 -5 5
0 -5 5
0 0 5
-5 0 5

CELLS 97 291
2 12 11
2 34 23
2 2 0
2 6 12
2 13 18
2 16 8
2 8 11
2 1 2
2 2 23
2 1 3
2 4 25
2 3 0
2 0 24
2 7 36
2 14 17
2 10 16
2 25 35
2 7 5
2 36 11
2 17 11
2 6 8
2 37 36
2 37 12
2 24 11
2 18 0
2 25 7
2 35 24
2 10 14
2 24 23
2 37 34
2 15 11
2 23 12
2 16 17
2 36 35
2 9 19
2 19 7
2 20 4
2 35 34
2 21 15
2 17 21
2 22 5
2 22 19
2 26 16
2 18 27
2 27 17
2 3 28
2 28 8
2 26 27
2 24 27
2 24 28
2 28 26
2 29 10
2 13 30
2 30 14
2 29 30
2 30 27
2 29 26
2 1 31
2 31 6
2 31 28
2 31 23
2 32 9
2 20 33
2 33 19
2 32 33
2 25 33
2 4 38
2 38 0
2 38 35
2 9 39
2 39 14
2 19 40
2 40 17
2 22 41
2 41 21
2 39 40
2 40 41
2 5 42
2 42 15
2 36 40
2 42 36
2 42 41
2 43 13
2 20 44
2 44 18
2 33 45
2 45 27
2 32 46
2 46 30
2 43 44
2 44 45
2 46 45
2 43 46
2 40 45
2 39 46
2 38 44
2 35 45

CELL_TYPES 97
3 
3 
3 
3 
3 
3 
3 
3 
3 
3 
3 
3 
3 
3 
3 
3 
3 
3 
3 
3 
3 
3 
3 
3 
3 
3 
3 
3 
3 
3 
3 
3 
3 
3 
3 
3 
3 
3 
3 
3 
3 
3 
3 
3 
3 
3 
3 
3 
3 
3 
3 
3 
3 
3 
3 
3 
3 
3 
3 
3 
3 
3 
3 
3 
3 
3 
3 
3 
3 
3 
3 
3 
3 
3 
3 
3 
3 
3 
3 
3 
3 
3 
3 
3 
3 
3 
3 
3 
3 
3 
3 
3 
3 
3 
3 
3 
3 
POINT_DATA 47
SCALARS GMDS_ID int 1
LOOKUP_TABLE default
2 3 6 9 10 11 12 14 15 16 17 18 19 20 21 22 25 26 27 28 29 31 32 33 34 35 37 38 39 40 41 42 43 44 45 46 47 48 50 52 53 54 55 56 57 58 59 
SCALARS geom_link_dim_0 int 1
LOOKUP_TABLE default
0 0 0 0 0 0 0 0 0 0 0 0 0 0 0 0 0 0 0 0 0 0 0 0 0 0 0 0 0 0 0 0 0 0 0 0 0 0 0 0 0 0 0 0 0 0 0 
SCALARS geom_link_id_0 int 1
LOOKUP_TABLE default
0 0 0 0 0 0 0 0 0 0 0 0 0 0 0 0 0 0 0 0 0 0 0 0 0 0 0 0 0 0 0 0 0 0 0 0 0 0 0 0 0 0 0 0 0 0 0 


CELL_DATA 97
SCALARS GMDS_ID int 1
LOOKUP_TABLE default
0 1 4 6 8 9 10 12 13 14 17 18 19 20 21 23 24 25 26 30 31 32 34 36 37 38 39 42 44 46 51 52 55 56 58 59 61 63 68 70 73 74 80 81 82 83 84 85 86 87 88 90 91 92 93 94 95 96 97 98 99 101 102 103 106 107 110 111 113 117 118 119 120 121 122 124 125 127 128 129 130 131 133 134 135 136 137 138 139 140 141 142 143 144 145 146 147 

SCALARS geom_link_dim_0 int 1
LOOKUP_TABLE default
0 0 0 0 0 0 0 0 0 0 0 0 0 0 0 0 0 0 0 0 0 0 0 0 0 0 0 0 0 0 0 0 0 0 0 0 0 0 0 0 0 0 0 0 0 0 0 0 0 0 0 0 0 0 0 0 0 0 0 0 0 0 0 0 0 0 0 0 0 0 0 0 0 0 0 0 0 0 0 0 0 0 0 0 0 0 0 0 0 0 0 0 0 0 0 0 0 

SCALARS geom_link_id_0 int 1
LOOKUP_TABLE default
0 0 0 0 0 0 0 0 0 0 0 0 0 0 0 0 0 0 0 0 0 0 0 0 0 0 0 0 0 0 0 0 0 0 0 0 0 0 0 0 0 0 0 0 0 0 0 0 0 0 0 0 0 0 0 0 0 0 0 0 0 0 0 0 0 0 0 0 0 0 0 0 0 0 0 0 0 0 0 0 0 0 0 0 0 0 0 0 0 0 0 0 0 0 0 0 0 

