# vtk DataFile Version 3.0
Generated by GMDS VTK Writer

ASCII
DATASET UNSTRUCTURED_GRID
POINTS 34 float
0 0 10
0 0 0
0 5 5
0 10 0
0 0 5
0 5 -5
0 5 0
0 -5 5
5 -5 0
5 10 0
-5 -5 -8.88178419700125e-16
0 0 -5
5 -5 5
5 10 5
-5 -5 5
0 -5 0
5 0 -5
5 0 0
10 0 0
10 0 5
5 0 5
5 0 10
-5 0 0
-5 0 5
0 10 5
5 5 -5
5 5 0
10 5 0
10 5 5
5 5 5
5 5 10
0 5 10
-5 5 0
-5 5 5

CELLS 65 195
2 26 27
2 10 15
2 8 17
2 5 6
2 1 6
2 2 29
2 22 1
2 32 6
2 7 4
2 4 2
2 1 17
2 4 0
2 6 2
2 8 12
2 17 26
2 3 6
2 4 20
2 33 2
2 16 25
2 23 4
2 25 26
2 11 16
2 0 31
2 14 7
2 11 5
2 9 13
2 26 9
2 0 21
2 18 27
2 10 14
2 11 1
2 15 1
2 15 8
2 15 7
2 16 17
2 18 17
2 7 12
2 12 20
2 6 26
2 31 30
2 19 20
2 21 20
2 24 2
2 24 13
2 17 20
2 18 19
2 10 22
2 14 23
2 22 23
2 5 25
2 19 28
2 1 4
2 20 29
2 29 13
2 21 30
2 28 29
2 29 30
2 3 24
2 3 9
2 26 29
2 27 28
2 2 31
2 22 32
2 23 33
2 32 33

CELL_TYPES 65
3 
3 
3 
3 
3 
3 
3 
3 
3 
3 
3 
3 
3 
3 
3 
3 
3 
3 
3 
3 
3 
3 
3 
3 
3 
3 
3 
3 
3 
3 
3 
3 
3 
3 
3 
3 
3 
3 
3 
3 
3 
3 
3 
3 
3 
3 
3 
3 
3 
3 
3 
3 
3 
3 
3 
3 
3 
3 
3 
3 
3 
3 
3 
3 
3 
POINT_DATA 34
SCALARS GMDS_ID int 1
LOOKUP_TABLE default
2 3 4 8 9 10 12 13 14 15 16 18 20 21 22 24 25 26 27 28 29 30 33 34 36 37 38 39 40 41 42 43 45 46 
SCALARS geom_link_dim int 1
LOOKUP_TABLE default
1 1 1 1 1 1 1 1 1 1 0 1 1 1 0 1 1 1 1 1 1 1 1 1 1 1 1 1 1 1 1 1 1 1 
SCALARS geom_link_id int 1
LOOKUP_TABLE default
20 12 2 4 14 18 1 27 31 9 -1 19 32 7 -1 28 25 26 29 30 23 24 11 13 3 17 10 21 22 8 15 16 5 6 


CELL_DATA 65
SCALARS GMDS_ID int 1
LOOKUP_TABLE default
0 1 3 4 5 6 7 8 11 12 14 16 20 21 22 23 24 26 28 29 30 31 34 35 37 39 41 42 43 45 46 50 52 54 55 56 57 60 62 64 66 67 68 69 70 71 74 79 81 83 87 88 89 90 91 95 96 97 98 99 100 102 103 108 110 

SCALARS geom_link_dim int 1
LOOKUP_TABLE default
2 0 2 2 2 2 2 2 2 2 2 2 2 2 2 2 2 2 2 2 2 2 2 0 2 2 2 2 2 0 2 2 2 2 2 2 2 2 2 2 2 2 2 2 2 2 0 0 2 2 2 0 2 2 2 2 2 2 2 2 2 2 2 2 2 

SCALARS geom_link_id int 1
LOOKUP_TABLE default
39 0 16 18 2 5 27 15 45 11 4 25 9 59 6 51 1 23 53 19 24 47 31 0 50 32 33 49 56 0 26 52 55 40 13 14 17 34 12 37 20 28 42 30 7 57 0 0 54 41 46 0 10 29 36 38 35 43 21 3 22 44 60 58 48 

