# vtk DataFile Version 3.0
Generated by GMDS VTK Writer

ASCII
DATASET UNSTRUCTURED_GRID
POINTS 42 float
10 5 5
0 10 5
5 5 5
5 -5 5
10 0 5
8.88178419700125e-16 -5 10
8.88178419700125e-16 10 10
0 0 5
10 5 10
0 5 10
0 5 -5
-5 5 10
-5 5 -5
5 5 -5
5 5 10
5 10 10
0 -5 5
-5 5 5
5 -5 10
0 0 -5
0 0 10
-5 -4.44089209850063e-16 10
-5 -4.44089209850063e-16 -5
-5 0 5
10 -4.44089209850063e-16 10
5 0 10
5 0 -5
5 0 5
0 -5 0
0 0 0
-5 0 0
0 5 5
10 5 0
5 5 0
5 10 0
-5 5 0
0 5 0
0 10 0
5 10 5
5 -5 0
5 0 0
10 0 0

CELLS 85 255
2 15 6
2 16 3
2 23 21
2 2 38
2 14 9
2 23 17
2 13 10
2 19 10
2 16 5
2 3 18
2 4 24
2 5 20
2 3 27
2 7 20
2 31 9
2 8 14
2 22 30
2 9 6
2 27 4
2 20 9
2 21 11
2 19 29
2 0 2
2 11 9
2 12 10
2 7 27
2 27 25
2 15 14
2 2 27
2 7 31
2 2 14
2 18 5
2 35 17
2 17 31
2 22 12
2 21 20
2 22 19
2 31 1
2 34 38
2 24 8
2 18 25
2 25 14
2 17 11
2 26 13
2 24 25
2 29 7
2 20 25
2 19 26
2 40 27
2 28 29
2 29 30
2 41 4
2 16 7
2 37 1
2 30 23
2 13 33
2 32 0
2 2 31
2 32 33
2 33 34
2 1 6
2 12 35
2 10 36
2 0 8
2 0 4
2 36 35
2 37 36
2 39 3
2 28 16
2 36 33
2 37 34
2 36 29
2 35 30
2 38 15
2 7 23
2 26 40
2 38 1
2 36 31
2 39 40
2 41 40
2 33 2
2 33 40
2 32 41
2 28 39
2 29 40

CELL_TYPES 85
3 
3 
3 
3 
3 
3 
3 
3 
3 
3 
3 
3 
3 
3 
3 
3 
3 
3 
3 
3 
3 
3 
3 
3 
3 
3 
3 
3 
3 
3 
3 
3 
3 
3 
3 
3 
3 
3 
3 
3 
3 
3 
3 
3 
3 
3 
3 
3 
3 
3 
3 
3 
3 
3 
3 
3 
3 
3 
3 
3 
3 
3 
3 
3 
3 
3 
3 
3 
3 
3 
3 
3 
3 
3 
3 
3 
3 
3 
3 
3 
3 
3 
3 
3 
3 
POINT_DATA 42
SCALARS GMDS_ID int 1
LOOKUP_TABLE default
0 6 7 8 9 10 11 12 13 14 15 16 17 18 19 20 21 22 23 24 25 26 27 28 29 30 31 32 33 34 35 36 37 38 39 40 41 42 44 45 46 47 
SCALARS geom_link_dim int 1
LOOKUP_TABLE default
1 1 1 1 1 0 0 1 0 1 1 0 0 1 1 0 1 1 0 1 1 0 0 1 0 1 1 1 1 1 1 1 1 1 1 1 1 1 1 1 1 1 
SCALARS geom_link_id int 1
LOOKUP_TABLE default
22 3 8 32 30 -1 -1 14 -1 16 18 -1 -1 17 15 -1 27 6 -1 19 20 -1 -1 13 -1 24 25 23 28 12 11 2 21 10 9 5 1 4 7 31 26 29 


CELL_DATA 85
SCALARS GMDS_ID int 1
LOOKUP_TABLE default
0 1 2 3 4 5 6 12 13 14 15 16 17 18 20 22 24 25 27 29 31 32 35 36 38 39 40 42 44 46 47 48 50 52 53 55 57 59 60 61 62 63 64 65 67 69 70 71 72 73 74 75 76 77 78 80 82 84 85 86 87 88 90 92 94 96 97 98 99 100 101 102 103 105 106 108 110 112 113 114 115 116 117 118 119 

SCALARS geom_link_dim int 1
LOOKUP_TABLE default
0 2 0 2 2 2 2 2 0 0 0 0 2 2 2 0 0 0 2 2 0 2 2 0 0 0 2 0 0 0 2 0 2 2 0 0 0 2 2 0 0 2 0 2 0 2 2 2 2 2 2 2 2 2 2 2 2 0 2 2 0 0 2 0 2 2 2 2 2 2 2 0 2 0 2 2 2 2 2 2 2 2 2 2 2 

SCALARS geom_link_id int 1
LOOKUP_TABLE default
0 17 -1 29 37 58 41 50 -1 -1 -1 0 34 25 44 0 0 0 20 31 0 26 38 0 0 -1 28 0 -1 -1 35 0 48 23 0 0 0 42 32 0 0 36 -1 53 0 8 49 47 7 52 27 57 45 43 54 24 22 -1 39 33 -1 0 18 -1 46 15 51 59 40 12 21 0 60 -1 19 13 30 9 16 14 3 6 56 55 4 

