# vtk DataFile Version 3.0
Generated by GMDS VTK Writer

ASCII
DATASET UNSTRUCTURED_GRID
POINTS 34 float
5 0 5
10 0 5
-5 5 -5
5 5 10
5 5 -5
0 5 10
0 5 -5
5 0 10
5 0 -5
0 0 -5
0 0 10
-5 -4.44089209850063e-16 -5
5 5 5
10 5 5
5 -5 5
5 10 5
0 10 5
0 5 5
-5 5 5
-5 0 5
0 0 5
0 -5 5
10 0 0
5 0 0
5 5 0
10 5 0
5 -5 0
5 10 0
0 10 0
0 5 0
-5 5 0
-5 0 0
0 0 0
0 -5 0

CELLS 65 195
2 24 12
2 3 5
2 8 23
2 13 12
2 12 0
2 12 3
2 22 25
2 22 1
2 8 4
2 23 0
2 4 24
2 24 23
2 1 0
2 7 3
2 25 13
2 4 6
2 6 2
2 1 13
2 25 24
2 22 23
2 9 6
2 10 5
2 0 7
2 11 2
2 11 9
2 7 10
2 8 9
2 14 0
2 17 5
2 12 15
2 15 16
2 17 16
2 12 17
2 18 17
2 20 10
2 20 19
2 17 20
2 18 19
2 14 21
2 21 20
2 0 20
2 26 14
2 26 23
2 27 15
2 28 16
2 6 29
2 29 17
2 24 27
2 27 28
2 29 28
2 24 29
2 2 30
2 30 18
2 30 29
2 11 31
2 31 19
2 9 32
2 32 20
2 32 31
2 29 32
2 30 31
2 33 21
2 26 33
2 33 32
2 23 32

CELL_TYPES 65
3 
3 
3 
3 
3 
3 
3 
3 
3 
3 
3 
3 
3 
3 
3 
3 
3 
3 
3 
3 
3 
3 
3 
3 
3 
3 
3 
3 
3 
3 
3 
3 
3 
3 
3 
3 
3 
3 
3 
3 
3 
3 
3 
3 
3 
3 
3 
3 
3 
3 
3 
3 
3 
3 
3 
3 
3 
3 
3 
3 
3 
3 
3 
3 
3 
POINT_DATA 34
SCALARS GMDS_ID int 1
LOOKUP_TABLE default
0 4 8 14 15 20 21 24 25 26 27 29 30 31 33 34 35 36 38 39 40 41 42 43 44 45 47 48 49 50 52 53 54 55 
SCALARS geom_link_dim_0 int 1
LOOKUP_TABLE default
0 0 0 0 0 0 0 0 0 0 0 0 0 0 0 0 0 0 0 0 0 0 0 0 0 0 0 0 0 0 0 0 0 0 
SCALARS geom_link_id_0 int 1
LOOKUP_TABLE default
0 0 0 0 0 0 0 0 0 0 0 0 0 0 0 0 0 0 0 0 0 0 0 0 0 0 0 0 0 0 0 0 0 0 


CELL_DATA 65
SCALARS GMDS_ID int 1
LOOKUP_TABLE default
4 7 11 12 14 18 20 22 25 27 28 30 31 35 37 39 40 42 43 50 54 56 57 60 64 65 66 71 78 79 80 81 82 89 93 94 95 96 99 100 101 103 105 108 110 111 112 113 114 115 116 119 120 123 124 125 126 127 128 129 130 132 133 134 135 

SCALARS geom_link_dim_0 int 1
LOOKUP_TABLE default
0 0 0 0 0 0 0 0 0 0 0 0 0 0 0 0 0 0 0 0 0 0 0 0 0 0 0 0 0 0 0 0 0 0 0 0 0 0 0 0 0 0 0 0 0 0 0 0 0 0 0 0 0 0 0 0 0 0 0 0 0 0 0 0 0 

SCALARS geom_link_id_0 int 1
LOOKUP_TABLE default
0 0 0 0 0 0 0 0 0 0 0 0 0 0 0 0 0 0 0 0 0 0 0 0 0 0 0 0 0 0 0 0 0 0 0 0 0 0 0 0 0 0 0 0 0 0 0 0 0 0 0 0 0 0 0 0 0 0 0 0 0 0 0 0 0 

