# vtk DataFile Version 3.0
Generated by GMDS VTK Writer

ASCII
DATASET UNSTRUCTURED_GRID
POINTS 55 float
5 0 5
-5 10 -5
10 -4.44089209850063e-16 10
10 -5 -5
10 0 5
-5 10 10
10 -4.44089209850063e-16 -5
-5 5 -5
-5 5 10
10 5 10
10 5 -5
5 -5 -5
5 -5 10
5 5 10
5 5 -5
5 10 10
5 10 -5
0 -5 -5
0 -5 10
0 5 10
0 5 -5
0 10 10
0 10 -5
5 0 10
5 0 -5
0 0 -5
0 0 10
-5 -4.44089209850063e-16 10
-5 -4.44089209850063e-16 -5
5 5 5
10 5 5
10 -5 5
5 -5 5
5 10 5
0 10 5
0 5 5
-5 10 5
-5 5 5
-5 0 5
0 0 5
0 -5 5
10 0 0
5 0 -4.44089209850063e-16
5 5 0
10 5 0
10 -5 -4.44089209850063e-16
5 -5 0
5 10 0
0 10 0
0 5 -4.44089209850063e-16
-5 10 -4.44089209850063e-16
-5 5 0
-5 0 0
0 0 0
0 -5 0

CELLS 119 357
2 2 23
2 11 17
2 19 8
2 43 29
2 3 11
2 13 19
2 10 44
2 24 42
2 30 29
2 7 1
2 29 0
2 8 5
2 12 23
2 29 13
2 3 6
2 41 44
2 12 18
2 41 4
2 9 13
2 24 14
2 10 14
2 42 0
2 14 43
2 30 9
2 43 42
2 4 0
2 2 9
2 11 24
2 6 10
2 23 13
2 15 13
2 44 30
2 16 14
2 14 20
2 20 7
2 6 41
2 4 30
2 44 43
2 15 21
2 21 5
2 16 22
2 22 1
2 19 21
2 41 42
2 20 22
2 6 24
2 17 25
2 25 20
2 18 26
2 26 19
2 0 23
2 27 8
2 4 2
2 28 7
2 3 45
2 27 26
2 45 31
2 28 25
2 23 26
2 24 25
2 32 12
2 31 32
2 32 0
2 31 4
2 33 15
2 34 21
2 35 19
2 29 33
2 33 34
2 35 34
2 29 35
2 36 5
2 37 8
2 36 34
2 36 37
2 37 35
2 38 27
2 39 26
2 39 38
2 35 39
2 37 38
2 40 18
2 32 40
2 40 39
2 0 39
2 11 46
2 46 32
2 45 46
2 46 42
2 45 41
2 16 47
2 47 33
2 22 48
2 48 34
2 20 49
2 49 35
2 43 47
2 47 48
2 49 48
2 43 49
2 1 50
2 50 36
2 7 51
2 51 37
2 50 48
2 50 51
2 51 49
2 28 52
2 52 38
2 25 53
2 53 39
2 53 52
2 49 53
2 51 52
2 17 54
2 54 40
2 46 54
2 54 53
2 42 53

CELL_TYPES 119
3 
3 
3 
3 
3 
3 
3 
3 
3 
3 
3 
3 
3 
3 
3 
3 
3 
3 
3 
3 
3 
3 
3 
3 
3 
3 
3 
3 
3 
3 
3 
3 
3 
3 
3 
3 
3 
3 
3 
3 
3 
3 
3 
3 
3 
3 
3 
3 
3 
3 
3 
3 
3 
3 
3 
3 
3 
3 
3 
3 
3 
3 
3 
3 
3 
3 
3 
3 
3 
3 
3 
3 
3 
3 
3 
3 
3 
3 
3 
3 
3 
3 
3 
3 
3 
3 
3 
3 
3 
3 
3 
3 
3 
3 
3 
3 
3 
3 
3 
3 
3 
3 
3 
3 
3 
3 
3 
3 
3 
3 
3 
3 
3 
3 
3 
3 
3 
3 
3 
POINT_DATA 55
SCALARS GMDS_ID int 1
LOOKUP_TABLE default
0 1 2 3 4 5 6 8 9 10 11 12 13 14 15 16 17 18 19 20 21 22 23 24 25 26 27 28 29 30 31 32 33 34 35 36 37 38 39 40 41 42 43 44 45 46 47 48 49 50 51 52 53 54 55 
SCALARS geom_link_dim_0 int 1
LOOKUP_TABLE default
0 0 0 0 0 0 0 0 0 0 0 0 0 0 0 0 0 0 0 0 0 0 0 0 0 0 0 0 0 0 0 0 0 0 0 0 0 0 0 0 0 0 0 0 0 0 0 0 0 0 0 0 0 0 0 
SCALARS geom_link_id_0 int 1
LOOKUP_TABLE default
0 0 0 0 0 0 0 0 0 0 0 0 0 0 0 0 0 0 0 0 0 0 0 0 0 0 0 0 0 0 0 0 0 0 0 0 0 0 0 0 0 0 0 0 0 0 0 0 0 0 0 0 0 0 0 


CELL_DATA 119
SCALARS GMDS_ID int 1
LOOKUP_TABLE default
0 1 3 4 6 7 9 11 12 13 14 15 17 18 19 20 21 22 24 25 26 27 28 29 30 31 32 33 34 35 36 37 38 39 40 41 42 43 45 46 47 48 49 50 51 52 53 54 55 56 57 58 59 60 61 62 63 64 65 66 69 70 71 72 74 76 78 79 80 81 82 84 86 87 88 89 91 93 94 95 96 98 99 100 101 102 103 104 105 106 107 108 109 110 111 112 113 114 115 116 117 118 119 120 121 122 123 124 125 126 127 128 129 130 131 132 133 134 135 

SCALARS geom_link_dim_0 int 1
LOOKUP_TABLE default
0 0 0 0 0 0 0 0 0 0 0 0 0 0 0 0 0 0 0 0 0 0 0 0 0 0 0 0 0 0 0 0 0 0 0 0 0 0 0 0 0 0 0 0 0 0 0 0 0 0 0 0 0 0 0 0 0 0 0 0 0 0 0 0 0 0 0 0 0 0 0 0 0 0 0 0 0 0 0 0 0 0 0 0 0 0 0 0 0 0 0 0 0 0 0 0 0 0 0 0 0 0 0 0 0 0 0 0 0 0 0 0 0 0 0 0 0 0 0 

SCALARS geom_link_id_0 int 1
LOOKUP_TABLE default
0 0 0 0 0 0 0 0 0 0 0 0 0 0 0 0 0 0 0 0 0 0 0 0 0 0 0 0 0 0 0 0 0 0 0 0 0 0 0 0 0 0 0 0 0 0 0 0 0 0 0 0 0 0 0 0 0 0 0 0 0 0 0 0 0 0 0 0 0 0 0 0 0 0 0 0 0 0 0 0 0 0 0 0 0 0 0 0 0 0 0 0 0 0 0 0 0 0 0 0 0 0 0 0 0 0 0 0 0 0 0 0 0 0 0 0 0 0 0 

