# vtk DataFile Version 3.0
Generated by GMDS VTK Writer

ASCII
DATASET UNSTRUCTURED_GRID
POINTS 48 float
5 -5 0
5 10 0
10 10 -5
10 -5 -5
0 0 5
5 0 5
5 0 10
0 0 10
8.88178419700125e-16 10 -5
8.88178419700125e-16 -5 -5
8.88178419700125e-16 -5 10
10 10 -8.88178419700125e-16
10 -5 -8.88178419700125e-16
0 -5 0
0 10 0
-5 -5 -8.88178419700125e-16
5 -5 10
5 10 -5
5 -5 -5
5 10 5
5 -5 5
0 -5 5
0 10 5
10 10 5
10 -5 5
-5 -5 5
5 0 0
0 0 0
10 -8.88178419700125e-16 -5
10 0 0
5 0 -5
0 0 -5
10 0 5
-5 0 0
-5 0 5
5 5 0
0 5 0
0 5 5
5 5 5
0 5 10
5 5 10
10 5 -5
10 5 0
5 5 -5
0 5 -5
10 5 5
-5 5 0
-5 5 5

CELLS 100 300
2 12 0
2 3 12
2 27 36
2 7 6
2 21 4
2 2 11
2 7 4
2 6 5
2 16 10
2 26 27
2 0 20
2 11 1
2 13 21
2 10 7
2 1 19
2 20 5
2 35 1
2 37 22
2 5 38
2 38 19
2 9 13
2 27 4
2 8 14
2 4 37
2 21 10
2 38 35
2 20 16
2 0 13
2 1 14
2 0 26
2 15 13
2 7 39
2 13 27
2 2 17
2 17 8
2 3 18
2 18 9
2 36 14
2 18 0
2 17 1
2 14 22
2 35 36
2 20 21
2 37 36
2 19 22
2 11 23
2 16 6
2 12 24
2 5 4
2 26 35
2 20 24
2 19 23
2 15 25
2 21 25
2 37 38
2 26 5
2 3 28
2 12 29
2 18 30
2 28 29
2 26 29
2 26 30
2 28 30
2 9 31
2 31 27
2 31 30
2 24 32
2 29 32
2 5 32
2 15 33
2 25 34
2 27 33
2 33 34
2 4 34
2 6 40
2 37 39
2 40 39
2 38 40
2 41 2
2 29 42
2 42 11
2 30 43
2 43 17
2 41 42
2 35 42
2 35 43
2 41 43
2 31 44
2 44 8
2 36 44
2 43 44
2 32 45
2 45 23
2 42 45
2 38 45
2 33 46
2 34 47
2 36 46
2 46 47
2 37 47

CELL_TYPES 100
3 
3 
3 
3 
3 
3 
3 
3 
3 
3 
3 
3 
3 
3 
3 
3 
3 
3 
3 
3 
3 
3 
3 
3 
3 
3 
3 
3 
3 
3 
3 
3 
3 
3 
3 
3 
3 
3 
3 
3 
3 
3 
3 
3 
3 
3 
3 
3 
3 
3 
3 
3 
3 
3 
3 
3 
3 
3 
3 
3 
3 
3 
3 
3 
3 
3 
3 
3 
3 
3 
3 
3 
3 
3 
3 
3 
3 
3 
3 
3 
3 
3 
3 
3 
3 
3 
3 
3 
3 
3 
3 
3 
3 
3 
3 
3 
3 
3 
3 
3 
POINT_DATA 48
SCALARS GMDS_ID int 1
LOOKUP_TABLE default
0 1 2 3 4 5 6 7 8 9 10 12 13 14 15 16 18 20 21 22 23 24 25 26 27 28 30 31 32 33 34 35 36 37 38 39 40 41 42 43 44 45 46 47 48 49 50 51 
SCALARS geom_link_dim int 1
LOOKUP_TABLE default
1 1 0 0 1 1 1 1 0 0 0 0 0 1 1 0 0 0 0 1 1 1 1 0 0 0 1 1 0 1 1 1 1 1 1 1 1 1 1 1 1 0 1 1 1 1 1 1 
SCALARS geom_link_id int 1
LOOKUP_TABLE default
31 9 -1 -1 14 23 24 20 -1 -1 -1 -1 -1 28 4 -1 -1 -1 -1 7 32 27 3 -1 -1 -1 26 12 -1 29 25 19 30 11 13 10 1 2 8 16 15 -1 21 17 18 22 5 6 


CELL_DATA 100
SCALARS GMDS_ID int 1
LOOKUP_TABLE default
0 1 2 3 4 5 6 7 9 11 12 13 14 17 18 19 20 21 22 23 24 25 26 28 29 30 31 32 34 35 36 37 39 40 41 42 43 44 45 46 47 49 50 51 52 53 54 55 56 57 58 59 60 64 65 67 68 70 72 74 75 76 77 78 80 81 82 84 85 86 88 90 91 92 94 96 97 98 100 101 102 103 104 105 106 107 108 109 110 111 112 113 114 115 116 117 119 121 122 123 

SCALARS geom_link_dim int 1
LOOKUP_TABLE default
0 0 2 2 2 0 2 2 0 0 2 0 2 0 2 2 0 2 2 2 0 0 0 2 0 0 0 2 2 0 0 2 2 0 0 0 0 2 0 0 2 0 2 2 2 0 0 0 0 2 0 0 0 0 2 0 0 0 0 0 2 2 0 0 2 2 0 2 2 0 0 2 2 2 2 2 2 2 0 2 0 2 0 0 2 2 0 2 0 2 2 2 0 2 2 2 2 2 2 2 

SCALARS geom_link_id int 1
LOOKUP_TABLE default
0 0 2 49 45 0 25 28 0 0 59 0 40 0 32 34 0 42 10 29 0 0 0 11 0 0 0 55 21 0 0 31 52 0 0 0 0 51 0 0 43 0 17 9 30 0 0 0 0 6 0 0 0 0 5 0 0 0 0 0 14 13 0 0 26 47 0 57 20 0 0 27 54 19 36 44 37 35 0 56 0 53 0 0 39 24 0 50 0 18 41 46 0 22 38 60 58 15 48 23 

