# vtk DataFile Version 3.0
Generated by GMDS VTK Writer

ASCII
DATASET UNSTRUCTURED_GRID
POINTS 22 float
-5 -5 -5
-5 10 -5
10 10 -5
10 -5 -5
-5 -5 10
-5 10 10
5 10 -5
5 -5 -5
5 -5 10
5 10 10
10 10 -8.88178419700125e-16
10 -5 -8.88178419700125e-16
5 -5 0
5 10 0
-5 -5 -8.88178419700125e-16
-5 10 -8.88178419700125e-16
10 10 5
10 -5 5
5 -5 5
5 10 5
-5 -5 5
-5 10 5

CELLS 41 123
2 0 1
2 3 11
2 2 3
2 4 5
2 2 10
2 18 8
2 10 16
2 2 6
2 6 1
2 3 7
2 7 0
2 8 4
2 9 5
2 6 7
2 12 18
2 9 8
2 11 17
2 7 12
2 6 13
2 10 11
2 11 12
2 13 12
2 10 13
2 0 14
2 1 15
2 14 12
2 14 15
2 15 13
2 13 19
2 19 9
2 16 17
2 17 18
2 18 19
2 16 19
2 14 20
2 20 4
2 15 21
2 21 5
2 18 20
2 20 21
2 19 21

CELL_TYPES 41
3 
3 
3 
3 
3 
3 
3 
3 
3 
3 
3 
3 
3 
3 
3 
3 
3 
3 
3 
3 
3 
3 
3 
3 
3 
3 
3 
3 
3 
3 
3 
3 
3 
3 
3 
3 
3 
3 
3 
3 
3 
POINT_DATA 22
SCALARS GMDS_ID int 1
LOOKUP_TABLE default
0 1 2 3 4 5 8 9 10 11 12 13 14 15 16 17 18 19 20 21 22 23 
SCALARS geom_link_dim int 1
LOOKUP_TABLE default
0 0 0 0 0 0 0 0 0 0 0 0 1 1 0 0 0 0 1 1 0 0 
SCALARS geom_link_id int 1
LOOKUP_TABLE default
-1 -1 -1 -1 -1 -1 -1 -1 -1 -1 -1 -1 31 9 -1 -1 -1 -1 32 7 -1 -1 


CELL_DATA 41
SCALARS GMDS_ID int 1
LOOKUP_TABLE default
0 1 2 4 5 8 11 12 13 14 15 17 19 20 21 22 23 24 26 28 29 30 31 32 34 36 37 38 39 40 41 42 43 44 45 46 47 48 49 50 51 

SCALARS geom_link_dim int 1
LOOKUP_TABLE default
0 0 0 0 0 0 0 0 0 0 0 0 0 0 2 0 0 0 0 0 0 0 0 0 0 0 0 0 2 0 0 0 0 0 0 0 0 0 0 0 0 

SCALARS geom_link_id int 1
LOOKUP_TABLE default
0 0 0 0 0 0 0 0 0 0 0 0 0 0 59 0 0 0 0 0 0 0 0 0 0 0 0 0 32 0 0 0 0 0 0 0 0 0 0 0 0 

