# vtk DataFile Version 3.0
Generated by GMDS VTK Writer

ASCII
DATASET UNSTRUCTURED_GRID
POINTS 16 float
-5 -5 -5
-5 10 -5
10 -5 -5
-5 -5 10
-5 10 10
10 -5 10
5 10 -5
5 -5 -5
5 -5 10
5 10 10
10 5 -5
10 5 10
5 5 10
5 5 -5
-5 5 10
-5 5 -5

CELLS 28 84
2 5 11
2 2 10
2 0 3
2 1 4
2 2 5
2 6 1
2 2 7
2 7 0
2 5 8
2 8 3
2 9 4
2 7 8
2 6 9
2 8 12
2 12 9
2 7 13
2 13 6
2 10 11
2 11 12
2 13 12
2 10 13
2 3 14
2 14 4
2 0 15
2 15 1
2 14 12
2 15 14
2 15 13

CELL_TYPES 28
3 
3 
3 
3 
3 
3 
3 
3 
3 
3 
3 
3 
3 
3 
3 
3 
3 
3 
3 
3 
3 
3 
3 
3 
3 
3 
3 
3 
POINT_DATA 16
SCALARS GMDS_ID int 1
LOOKUP_TABLE default
0 1 3 4 5 7 8 9 10 11 12 13 14 15 16 17 
SCALARS geom_link_dim_0 int 1
LOOKUP_TABLE default
0 0 0 0 0 0 0 0 0 0 0 0 0 0 0 0 
SCALARS geom_link_id_0 int 1
LOOKUP_TABLE default
0 0 0 0 0 0 0 0 0 0 0 0 0 0 0 0 


CELL_DATA 28
SCALARS GMDS_ID int 1
LOOKUP_TABLE default
1 5 8 9 11 13 14 15 16 17 19 21 23 24 25 26 27 28 29 30 31 32 33 34 35 36 37 38 

SCALARS geom_link_dim_0 int 1
LOOKUP_TABLE default
0 0 0 0 0 0 0 0 0 0 0 0 0 0 0 0 0 0 0 0 0 0 0 0 0 0 0 0 

SCALARS geom_link_id_0 int 1
LOOKUP_TABLE default
0 0 0 0 0 0 0 0 0 0 0 0 0 0 0 0 0 0 0 0 0 0 0 0 0 0 0 0 

