# vtk DataFile Version 3.0
Generated by GMDS VTK Writer

ASCII
DATASET UNSTRUCTURED_GRID
POINTS 56 float
-5 10 -5
5 -5 5
-5 -5 10
-5 10 10
10 10 10
-5 -8.88178419700125e-16 -5
-5 -8.88178419700125e-16 10
10 -8.88178419700125e-16 10
-5 -5 -8.88178419700125e-16
10 0 0
-5 0 0
10 10 -8.88178419700125e-16
-5 10 -8.88178419700125e-16
5 -5 -5
5 0 -5
5 0 0
5 -5 0
5 0 10
5 -5 10
5 10 -5
5 10 0
5 10 10
5 0 5
10 0 5
-5 -5 5
-5 0 5
-5 10 5
5 10 5
10 10 5
-5 5 -5
-5 5 0
5 5 0
5 5 -5
5 5 5
-5 5 5
5 5 10
-5 5 10
10 5 0
10 5 5
10 5 10
0 -5 5
0 0 5
0 0 10
-4.44089209850063e-16 -5 10
0 -5 0
0 0 0
-4.44089209850063e-16 -5 -5
0 0 -5
0 5 -5
0 5 0
-4.44089209850063e-16 10 -5
0 10 0
0 10 5
0 5 5
-4.44089209850063e-16 10 10
0 5 10

CELLS 121 363
2 0 29
2 22 17
2 32 14
2 23 7
2 2 43
2 2 6
2 41 22
2 24 40
2 15 22
2 15 9
2 22 1
2 29 5
2 5 10
2 29 30
2 23 22
2 8 10
2 12 30
2 0 12
2 20 31
2 40 1
2 9 23
2 43 42
2 13 14
2 14 15
2 16 15
2 13 16
2 17 7
2 19 32
2 18 17
2 31 15
2 1 18
2 20 11
2 42 17
2 42 41
2 19 20
2 21 4
2 6 42
2 30 10
2 8 24
2 24 2
2 10 25
2 25 6
2 24 25
2 12 26
2 26 3
2 20 27
2 27 21
2 40 41
2 43 18
2 11 28
2 28 4
2 28 27
2 25 41
2 32 31
2 27 33
2 33 22
2 26 34
2 34 25
2 31 33
2 30 34
2 21 35
2 35 17
2 3 36
2 36 6
2 35 33
2 36 34
2 11 37
2 37 9
2 28 38
2 38 23
2 37 31
2 33 38
2 37 38
2 4 39
2 39 7
2 39 35
2 39 38
2 43 40
2 8 44
2 44 16
2 10 45
2 45 15
2 44 45
2 45 41
2 44 40
2 46 13
2 5 47
2 47 14
2 46 47
2 47 45
2 46 44
2 29 48
2 48 32
2 30 49
2 49 31
2 48 49
2 45 49
2 47 48
2 0 50
2 50 19
2 12 51
2 51 20
2 50 51
2 51 49
2 50 48
2 26 52
2 52 27
2 34 53
2 53 33
2 51 52
2 52 53
2 49 53
2 41 53
2 3 54
2 54 21
2 36 55
2 55 35
2 54 52
2 53 55
2 54 55
2 42 55

CELL_TYPES 121
3 
3 
3 
3 
3 
3 
3 
3 
3 
3 
3 
3 
3 
3 
3 
3 
3 
3 
3 
3 
3 
3 
3 
3 
3 
3 
3 
3 
3 
3 
3 
3 
3 
3 
3 
3 
3 
3 
3 
3 
3 
3 
3 
3 
3 
3 
3 
3 
3 
3 
3 
3 
3 
3 
3 
3 
3 
3 
3 
3 
3 
3 
3 
3 
3 
3 
3 
3 
3 
3 
3 
3 
3 
3 
3 
3 
3 
3 
3 
3 
3 
3 
3 
3 
3 
3 
3 
3 
3 
3 
3 
3 
3 
3 
3 
3 
3 
3 
3 
3 
3 
3 
3 
3 
3 
3 
3 
3 
3 
3 
3 
3 
3 
3 
3 
3 
3 
3 
3 
3 
3 
POINT_DATA 56
SCALARS GMDS_ID int 1
LOOKUP_TABLE default
1 2 4 5 6 8 9 10 12 14 15 16 17 18 19 20 21 22 23 24 25 26 27 28 30 31 32 33 34 35 36 37 38 39 40 41 42 43 44 45 46 47 48 49 50 51 52 53 54 55 56 57 58 59 60 61 
SCALARS geom_link_dim_0 int 1
LOOKUP_TABLE default
0 0 0 0 0 0 0 0 0 0 0 0 0 0 0 0 0 0 0 0 0 0 0 0 0 0 0 0 0 0 0 0 0 0 0 0 0 0 0 0 0 0 0 0 0 0 0 0 0 0 0 0 0 0 0 0 
SCALARS geom_link_id_0 int 1
LOOKUP_TABLE default
0 0 0 0 0 0 0 0 0 0 0 0 0 0 0 0 0 0 0 0 0 0 0 0 0 0 0 0 0 0 0 0 0 0 0 0 0 0 0 0 0 0 0 0 0 0 0 0 0 0 0 0 0 0 0 0 


CELL_DATA 121
SCALARS GMDS_ID int 1
LOOKUP_TABLE default
0 1 4 5 13 14 15 17 19 20 23 25 26 27 30 31 33 34 35 36 37 38 41 42 43 44 46 49 50 51 53 55 56 57 58 60 61 62 63 64 65 66 67 70 71 72 73 74 76 77 78 79 80 82 84 85 86 87 88 90 91 92 93 94 95 97 98 99 100 101 102 103 104 105 106 107 108 109 110 111 112 113 114 115 116 118 119 120 121 122 123 124 125 126 127 128 129 130 131 132 133 134 135 136 137 138 139 140 141 142 143 144 145 146 147 148 149 150 151 152 153 

SCALARS geom_link_dim_0 int 1
LOOKUP_TABLE default
0 0 0 0 0 0 0 0 0 0 0 0 0 0 0 0 0 0 0 0 0 0 0 0 0 0 0 0 0 0 0 0 0 0 0 0 0 0 0 0 0 0 0 0 0 0 0 0 0 0 0 0 0 0 0 0 0 0 0 0 0 0 0 0 0 0 0 0 0 0 0 0 0 0 0 0 0 0 0 0 0 0 0 0 0 0 0 0 0 0 0 0 0 0 0 0 0 0 0 0 0 0 0 0 0 0 0 0 0 0 0 0 0 0 0 0 0 0 0 0 0 

SCALARS geom_link_id_0 int 1
LOOKUP_TABLE default
0 0 0 0 0 0 0 0 0 0 0 0 0 0 0 0 0 0 0 0 0 0 0 0 0 0 0 0 0 0 0 0 0 0 0 0 0 0 0 0 0 0 0 0 0 0 0 0 0 0 0 0 0 0 0 0 0 0 0 0 0 0 0 0 0 0 0 0 0 0 0 0 0 0 0 0 0 0 0 0 0 0 0 0 0 0 0 0 0 0 0 0 0 0 0 0 0 0 0 0 0 0 0 0 0 0 0 0 0 0 0 0 0 0 0 0 0 0 0 0 0 

