# vtk DataFile Version 3.0
Generated by GMDS VTK Writer

ASCII
DATASET UNSTRUCTURED_GRID
POINTS 42 float
5 -5 0
5 -5 10
5 10 10
10 5 -5
5 5 10
5 5 -5
-5 5 10
5 5 0
10 5 0
-5 -5 -8.88178419700125e-16
-5 5 0
5 10 0
0 5 -5
0 5 0
0 -5 0
0 5 10
8.88178419700125e-16 -5 10
0 10 0
8.88178419700125e-16 10 10
10 0 0
5 0 0
5 0 10
0 0 -5
0 0 0
5 0 -5
-5 0 0
10 -4.44089209850063e-16 -5
-5 -4.44089209850063e-16 10
0 0 10
10 0 5
5 0 5
5 5 5
10 5 5
5 -5 5
-5 5 5
0 5 5
0 10 5
5 10 5
-5 -5 5
0 -5 5
0 0 5
-5 0 5

CELLS 85 255
2 8 7
2 29 19
2 3 8
2 9 14
2 12 5
2 5 7
2 1 21
2 0 20
2 4 31
2 10 13
2 21 30
2 4 2
2 31 7
2 13 7
2 3 5
2 32 31
2 32 8
2 20 7
2 14 0
2 21 4
2 30 20
2 20 19
2 32 29
2 11 7
2 19 8
2 12 13
2 31 30
2 6 15
2 15 4
2 16 1
2 30 29
2 17 11
2 13 17
2 18 2
2 18 15
2 22 12
2 14 23
2 23 13
2 24 5
2 22 23
2 20 23
2 20 24
2 24 22
2 9 25
2 25 10
2 25 23
2 26 3
2 26 24
2 26 19
2 27 6
2 16 28
2 28 15
2 27 28
2 21 28
2 1 33
2 33 0
2 33 30
2 6 34
2 34 10
2 15 35
2 35 13
2 18 36
2 36 17
2 34 35
2 35 36
2 2 37
2 37 11
2 31 35
2 37 31
2 37 36
2 38 9
2 16 39
2 39 14
2 28 40
2 40 23
2 27 41
2 41 25
2 38 39
2 39 40
2 41 40
2 38 41
2 35 40
2 34 41
2 33 39
2 30 40

CELL_TYPES 85
3 
3 
3 
3 
3 
3 
3 
3 
3 
3 
3 
3 
3 
3 
3 
3 
3 
3 
3 
3 
3 
3 
3 
3 
3 
3 
3 
3 
3 
3 
3 
3 
3 
3 
3 
3 
3 
3 
3 
3 
3 
3 
3 
3 
3 
3 
3 
3 
3 
3 
3 
3 
3 
3 
3 
3 
3 
3 
3 
3 
3 
3 
3 
3 
3 
3 
3 
3 
3 
3 
3 
3 
3 
3 
3 
3 
3 
3 
3 
3 
3 
3 
3 
3 
3 
POINT_DATA 42
SCALARS GMDS_ID int 1
LOOKUP_TABLE default
2 10 11 12 14 15 16 18 19 20 21 22 25 26 27 28 29 31 32 33 34 35 37 38 39 41 42 43 44 45 46 47 48 50 52 53 54 55 56 57 58 59 
SCALARS geom_link_dim_0 int 1
LOOKUP_TABLE default
0 0 0 0 0 0 0 0 0 0 0 0 0 0 0 0 0 0 0 0 0 0 0 0 0 0 0 0 0 0 0 0 0 0 0 0 0 0 0 0 0 0 
SCALARS geom_link_id_0 int 1
LOOKUP_TABLE default
0 0 0 0 0 0 0 0 0 0 0 0 0 0 0 0 0 0 0 0 0 0 0 0 0 0 0 0 0 0 0 0 0 0 0 0 0 0 0 0 0 0 


CELL_DATA 85
SCALARS GMDS_ID int 1
LOOKUP_TABLE default
0 1 6 8 9 10 17 19 20 21 24 25 26 30 31 32 34 36 37 38 39 44 46 51 52 55 56 58 59 61 63 68 70 73 74 80 81 82 84 85 86 87 88 91 92 94 97 98 99 101 102 103 106 107 110 111 113 117 118 119 120 121 122 124 125 127 128 129 130 131 133 134 135 136 137 138 139 140 141 142 143 144 145 146 147 

SCALARS geom_link_dim_0 int 1
LOOKUP_TABLE default
0 0 0 0 0 0 0 0 0 0 0 0 0 0 0 0 0 0 0 0 0 0 0 0 0 0 0 0 0 0 0 0 0 0 0 0 0 0 0 0 0 0 0 0 0 0 0 0 0 0 0 0 0 0 0 0 0 0 0 0 0 0 0 0 0 0 0 0 0 0 0 0 0 0 0 0 0 0 0 0 0 0 0 0 0 

SCALARS geom_link_id_0 int 1
LOOKUP_TABLE default
0 0 0 0 0 0 0 0 0 0 0 0 0 0 0 0 0 0 0 0 0 0 0 0 0 0 0 0 0 0 0 0 0 0 0 0 0 0 0 0 0 0 0 0 0 0 0 0 0 0 0 0 0 0 0 0 0 0 0 0 0 0 0 0 0 0 0 0 0 0 0 0 0 0 0 0 0 0 0 0 0 0 0 0 0 

