# vtk DataFile Version 3.0
Generated by GMDS VTK Writer

ASCII
DATASET UNSTRUCTURED_GRID
POINTS 30 float
-5 -5 -5
-5 10 -5
10 -4.44089209850063e-16 10
10 -5 -5
-5 -5 10
-5 10 10
10 -4.44089209850063e-16 -5
10 -5 10
-5 5 -5
-5 5 10
10 5 10
10 5 -5
5 -5 -5
5 -5 10
5 5 10
5 5 -5
5 10 10
5 10 -5
0 -5 -5
0 -5 10
0 5 10
0 5 -5
0 10 10
0 10 -5
5 0 10
5 0 -5
0 0 -5
0 0 10
-5 -4.44089209850063e-16 10
-5 -4.44089209850063e-16 -5

CELLS 59 177
2 2 24
2 12 18
2 7 13
2 20 9
2 25 24
2 18 0
2 3 12
2 14 20
2 0 4
2 1 5
2 7 2
2 3 7
2 8 1
2 9 5
2 13 24
2 3 6
2 8 9
2 13 19
2 11 10
2 19 4
2 10 14
2 25 15
2 11 15
2 6 2
2 12 13
2 14 15
2 2 10
2 12 25
2 6 11
2 24 14
2 16 14
2 17 16
2 17 15
2 15 21
2 21 8
2 18 19
2 20 21
2 16 22
2 22 5
2 17 23
2 23 1
2 20 22
2 22 23
2 21 23
2 6 25
2 18 26
2 26 21
2 19 27
2 27 20
2 4 28
2 28 9
2 0 29
2 29 8
2 26 27
2 28 27
2 29 28
2 29 26
2 24 27
2 25 26

CELL_TYPES 59
3 
3 
3 
3 
3 
3 
3 
3 
3 
3 
3 
3 
3 
3 
3 
3 
3 
3 
3 
3 
3 
3 
3 
3 
3 
3 
3 
3 
3 
3 
3 
3 
3 
3 
3 
3 
3 
3 
3 
3 
3 
3 
3 
3 
3 
3 
3 
3 
3 
3 
3 
3 
3 
3 
3 
3 
3 
3 
3 
POINT_DATA 30
SCALARS GMDS_ID int 1
LOOKUP_TABLE default
0 1 2 3 4 5 6 7 8 9 10 11 12 13 14 15 16 17 18 19 20 21 22 23 24 25 26 27 28 29 
SCALARS geom_link_dim_0 int 1
LOOKUP_TABLE default
0 0 0 0 0 0 0 0 0 0 0 0 0 0 0 0 0 0 0 0 0 0 0 0 0 0 0 0 0 0 
SCALARS geom_link_id_0 int 1
LOOKUP_TABLE default
0 0 0 0 0 0 0 0 0 0 0 0 0 0 0 0 0 0 0 0 0 0 0 0 0 0 0 0 0 0 


CELL_DATA 59
SCALARS GMDS_ID int 1
LOOKUP_TABLE default
0 1 2 3 4 5 6 7 8 9 10 11 13 15 17 19 20 21 22 23 24 25 26 27 28 30 32 33 34 35 36 37 38 39 40 41 43 45 46 47 48 49 50 51 52 53 54 55 56 57 58 59 60 61 62 63 64 65 66 

SCALARS geom_link_dim_0 int 1
LOOKUP_TABLE default
0 0 0 0 0 0 0 0 0 0 0 0 0 0 0 0 0 0 0 0 0 0 0 0 0 0 0 0 0 0 0 0 0 0 0 0 0 0 0 0 0 0 0 0 0 0 0 0 0 0 0 0 0 0 0 0 0 0 0 

SCALARS geom_link_id_0 int 1
LOOKUP_TABLE default
0 0 0 0 0 0 0 0 0 0 0 0 0 0 0 0 0 0 0 0 0 0 0 0 0 0 0 0 0 0 0 0 0 0 0 0 0 0 0 0 0 0 0 0 0 0 0 0 0 0 0 0 0 0 0 0 0 0 0 

