# vtk DataFile Version 3.0
Generated by GMDS VTK Writer

ASCII
DATASET UNSTRUCTURED_GRID
POINTS 36 float
-5 0 0
10 10 -5
5 0 10
5 0 -5
5 10 -5
10 5 -5
5 5 -5
5 5 10
10 5 5
5 5 5
5 10 5
10 0 5
5 0 5
5 -5 5
-5 0 5
-5 5 5
0 0 -5
0 0 5
0 -5 5
0 0 10
0 5 -5
0 5 5
0 5 10
0 10 5
-5 5 0
0 5 0
0 0 0
10 5 0
5 5 0
5 10 0
10 10 -4.44089209850063e-16
10 0 0
5 0 0
5 -5 0
0 -5 0
0 10 0

CELLS 69 207
2 26 25
2 6 4
2 27 8
2 3 6
2 16 3
2 9 7
2 5 1
2 24 25
2 0 26
2 17 18
2 24 15
2 1 4
2 20 25
2 14 17
2 2 7
2 17 12
2 5 6
2 16 26
2 18 13
2 0 24
2 8 9
2 10 9
2 12 2
2 11 12
2 12 9
2 11 8
2 13 12
2 5 27
2 6 28
2 26 17
2 14 15
2 25 21
2 19 2
2 19 17
2 20 6
2 15 21
2 21 9
2 16 20
2 17 21
2 22 7
2 22 21
2 19 22
2 0 14
2 23 10
2 21 23
2 28 9
2 4 29
2 29 10
2 1 30
2 27 28
2 29 28
2 30 29
2 30 27
2 31 11
2 3 32
2 32 12
2 31 32
2 32 28
2 31 27
2 33 13
2 33 32
2 34 18
2 34 26
2 32 26
2 33 34
2 28 25
2 35 23
2 25 35
2 29 35

CELL_TYPES 69
3 
3 
3 
3 
3 
3 
3 
3 
3 
3 
3 
3 
3 
3 
3 
3 
3 
3 
3 
3 
3 
3 
3 
3 
3 
3 
3 
3 
3 
3 
3 
3 
3 
3 
3 
3 
3 
3 
3 
3 
3 
3 
3 
3 
3 
3 
3 
3 
3 
3 
3 
3 
3 
3 
3 
3 
3 
3 
3 
3 
3 
3 
3 
3 
3 
3 
3 
3 
3 
POINT_DATA 36
SCALARS GMDS_ID int 1
LOOKUP_TABLE default
1 2 14 15 17 19 20 21 24 25 26 28 29 31 32 34 37 38 39 40 42 43 44 46 48 49 50 51 52 53 54 55 56 58 59 61 
SCALARS geom_link_dim int 1
LOOKUP_TABLE default
1 0 1 1 0 0 1 1 1 1 1 1 1 1 1 1 1 1 1 1 1 1 1 1 1 1 1 1 1 1 0 1 1 1 1 1 
SCALARS geom_link_id int 1
LOOKUP_TABLE default
11 -1 24 25 -1 -1 17 15 22 8 7 30 23 32 13 6 19 14 27 20 18 2 16 3 5 1 12 21 10 9 -1 29 26 31 28 4 


CELL_DATA 69
SCALARS GMDS_ID int 1
LOOKUP_TABLE default
0 3 4 7 10 15 23 25 27 30 33 34 35 37 39 41 42 49 50 51 54 55 61 62 63 64 70 76 78 81 82 85 88 91 95 96 97 98 100 102 103 104 105 108 110 116 117 118 119 121 122 123 124 126 127 128 129 130 131 135 137 140 141 142 143 148 150 151 152 

SCALARS geom_link_dim int 1
LOOKUP_TABLE default
2 0 2 2 2 2 0 2 2 2 2 0 2 2 2 2 0 2 2 2 2 2 2 2 2 2 2 0 2 2 2 2 2 2 2 2 2 2 2 2 2 2 2 2 2 2 0 2 0 2 2 0 0 2 2 2 2 2 2 2 2 2 2 2 2 2 2 2 2 

SCALARS geom_link_id int 1
LOOKUP_TABLE default
2 0 22 53 47 35 0 15 27 45 48 0 18 19 36 1 0 26 17 60 38 29 28 20 10 46 34 0 24 8 58 9 49 25 41 23 5 50 11 37 44 31 54 30 42 3 0 32 0 39 33 0 0 57 13 7 14 6 56 59 16 40 52 4 55 12 43 51 21 

