# vtk DataFile Version 3.0
Generated by GMDS VTK Writer

ASCII
DATASET UNSTRUCTURED_GRID
POINTS 32 float
5 0 -5
5 0 10
0 0 10
5 0 5
-5 0 5
-5 0 0
0 0 -5
5 -5 0
5 10 0
10 0 5
5 -5 5
5 10 5
0 10 0
0 -5 0
0 10 5
0 -5 5
5 0 0
0 0 5
5 5 -5
5 5 0
10 5 0
5 5 5
10 5 5
0 5 -5
0 5 0
0 0 0
-5 5 0
-5 5 5
0 5 5
10 0 0
0 5 10
5 5 10

CELLS 60 180
2 6 0
2 25 17
2 13 7
2 0 18
2 9 22
2 3 17
2 4 27
2 17 28
2 5 26
2 5 25
2 7 10
2 0 16
2 29 9
2 25 24
2 4 17
2 12 8
2 16 3
2 19 8
2 8 11
2 1 3
2 1 2
2 9 3
2 3 21
2 6 25
2 14 11
2 15 10
2 12 14
2 13 15
2 1 31
2 10 3
2 15 17
2 18 19
2 20 19
2 21 11
2 29 16
2 19 21
2 22 21
2 20 22
2 16 25
2 24 12
2 23 24
2 19 24
2 23 18
2 6 23
2 5 4
2 26 24
2 13 25
2 28 14
2 26 27
2 27 28
2 24 28
2 21 28
2 2 30
2 7 16
2 29 20
2 28 30
2 16 19
2 17 2
2 31 21
2 31 30

CELL_TYPES 60
3 
3 
3 
3 
3 
3 
3 
3 
3 
3 
3 
3 
3 
3 
3 
3 
3 
3 
3 
3 
3 
3 
3 
3 
3 
3 
3 
3 
3 
3 
3 
3 
3 
3 
3 
3 
3 
3 
3 
3 
3 
3 
3 
3 
3 
3 
3 
3 
3 
3 
3 
3 
3 
3 
3 
3 
3 
3 
3 
3 
POINT_DATA 32
SCALARS GMDS_ID int 1
LOOKUP_TABLE default
0 1 3 5 6 8 12 14 15 18 20 21 24 25 26 27 28 30 31 32 33 34 35 36 37 38 39 40 41 42 43 44 
SCALARS geom_link_dim int 1
LOOKUP_TABLE default
1 1 1 1 1 1 1 1 1 1 1 1 1 1 1 1 1 1 1 1 1 1 1 1 1 1 1 1 1 1 1 1 
SCALARS geom_link_id int 1
LOOKUP_TABLE default
25 24 20 23 13 11 19 31 9 30 32 7 4 28 3 27 26 14 17 10 21 8 22 18 1 12 5 6 2 29 16 15 


CELL_DATA 60
SCALARS GMDS_ID int 1
LOOKUP_TABLE default
3 5 7 9 11 12 14 16 17 19 21 26 31 32 34 35 36 38 39 40 41 44 48 49 54 56 57 59 61 64 67 68 69 72 74 75 76 77 79 81 82 83 84 85 86 90 91 95 96 97 98 99 100 101 103 105 106 108 109 110 

SCALARS geom_link_dim int 1
LOOKUP_TABLE default
2 2 2 2 2 2 2 2 2 2 2 2 2 2 2 2 2 2 2 2 2 2 2 2 2 2 2 2 2 2 2 2 2 2 2 2 2 2 2 2 2 2 2 2 2 2 2 2 2 2 2 2 2 2 2 2 2 2 2 2 

SCALARS geom_link_id int 1
LOOKUP_TABLE default
47 8 55 53 46 1 58 11 60 27 59 13 57 2 19 21 7 33 32 28 49 20 10 26 30 17 43 40 36 34 45 24 39 29 14 3 38 22 4 51 18 12 41 50 54 15 52 42 48 23 9 5 31 16 56 44 6 25 35 37 

