# vtk DataFile Version 3.0
Generated by GMDS VTK Writer

ASCII
DATASET UNSTRUCTURED_GRID
POINTS 42 float
5 -5 0
5 10 0
0 0 5
5 0 5
5 0 10
0 0 10
8.88178419700125e-16 10 -5
8.88178419700125e-16 -5 -5
10 10 -8.88178419700125e-16
10 -5 -8.88178419700125e-16
0 -5 0
0 10 0
-5 -5 -8.88178419700125e-16
5 10 -5
5 -5 -5
5 10 5
5 -5 5
0 -5 5
0 10 5
10 10 5
10 -5 5
-5 -5 5
5 0 0
0 0 0
10 0 0
5 0 -5
0 0 -5
10 0 5
-5 0 0
-5 0 5
5 5 0
0 5 0
0 5 5
5 5 5
0 5 10
5 5 10
10 5 0
5 5 -5
0 5 -5
10 5 5
-5 5 0
-5 5 5

CELLS 85 255
2 9 0
2 23 31
2 5 4
2 17 2
2 5 2
2 4 3
2 22 23
2 0 16
2 8 1
2 10 17
2 1 15
2 16 3
2 30 1
2 32 18
2 3 33
2 33 15
2 7 10
2 23 2
2 6 11
2 2 32
2 33 30
2 0 10
2 1 11
2 0 22
2 12 10
2 5 34
2 10 23
2 13 6
2 14 7
2 31 11
2 14 0
2 13 1
2 11 18
2 30 31
2 16 17
2 32 31
2 15 18
2 8 19
2 9 20
2 3 2
2 22 30
2 16 20
2 15 19
2 12 21
2 17 21
2 32 33
2 22 3
2 9 24
2 14 25
2 22 24
2 22 25
2 7 26
2 26 23
2 26 25
2 20 27
2 24 27
2 3 27
2 12 28
2 21 29
2 23 28
2 28 29
2 2 29
2 4 35
2 32 34
2 35 34
2 33 35
2 24 36
2 36 8
2 25 37
2 37 13
2 30 36
2 30 37
2 26 38
2 38 6
2 31 38
2 37 38
2 27 39
2 39 19
2 36 39
2 33 39
2 28 40
2 29 41
2 31 40
2 40 41
2 32 41

CELL_TYPES 85
3 
3 
3 
3 
3 
3 
3 
3 
3 
3 
3 
3 
3 
3 
3 
3 
3 
3 
3 
3 
3 
3 
3 
3 
3 
3 
3 
3 
3 
3 
3 
3 
3 
3 
3 
3 
3 
3 
3 
3 
3 
3 
3 
3 
3 
3 
3 
3 
3 
3 
3 
3 
3 
3 
3 
3 
3 
3 
3 
3 
3 
3 
3 
3 
3 
3 
3 
3 
3 
3 
3 
3 
3 
3 
3 
3 
3 
3 
3 
3 
3 
3 
3 
3 
3 
POINT_DATA 42
SCALARS GMDS_ID int 1
LOOKUP_TABLE default
0 1 4 5 6 7 8 9 12 13 14 15 16 20 21 22 23 24 25 26 27 28 30 31 33 34 35 36 37 38 39 40 41 42 43 44 46 47 48 49 50 51 
SCALARS geom_link_dim int 1
LOOKUP_TABLE default
1 1 1 1 1 1 0 0 0 0 1 1 0 0 0 1 1 1 1 0 0 0 1 1 1 1 1 1 1 1 1 1 1 1 1 1 1 1 1 1 1 1 
SCALARS geom_link_id int 1
LOOKUP_TABLE default
31 9 14 23 24 20 -1 -1 -1 -1 28 4 -1 -1 -1 7 32 27 3 -1 -1 -1 26 12 29 25 19 30 11 13 10 1 2 8 16 15 21 17 18 22 5 6 


CELL_DATA 85
SCALARS GMDS_ID int 1
LOOKUP_TABLE default
0 2 3 4 6 7 11 12 13 14 18 19 20 21 22 23 24 25 26 28 30 32 34 35 36 37 39 41 43 44 45 46 47 49 50 51 52 53 55 56 57 58 59 60 64 65 67 70 72 75 76 78 80 81 82 84 85 86 88 90 91 92 94 96 97 98 101 102 103 104 106 107 109 110 111 112 113 114 115 116 117 119 121 122 123 

SCALARS geom_link_dim int 1
LOOKUP_TABLE default
0 2 2 2 2 2 0 2 0 2 2 2 2 2 2 2 0 0 0 2 0 2 2 2 0 2 2 0 0 2 0 0 2 0 2 2 2 0 0 2 2 0 0 0 0 2 0 0 0 2 2 0 2 2 0 2 2 0 0 2 2 2 2 2 2 2 2 0 2 0 2 2 2 0 2 2 2 0 2 2 2 2 2 2 2 

SCALARS geom_link_id int 1
LOOKUP_TABLE default
0 2 49 45 25 28 0 59 0 40 32 34 33 42 10 29 0 0 0 11 0 55 21 16 0 31 52 0 0 51 0 0 43 0 17 9 30 0 0 1 6 0 0 0 0 5 0 0 0 14 13 0 26 47 0 57 20 0 0 27 54 19 36 44 37 35 56 0 53 0 39 24 50 0 18 41 46 0 22 38 60 58 15 48 23 

