# vtk DataFile Version 3.0
Generated by GMDS VTK Writer

ASCII
DATASET UNSTRUCTURED_GRID
POINTS 36 float
10 5 5
0 10 5
5 5 5
5 -5 5
10 0 5
8.88178419700125e-16 10 10
0 0 5
0 5 10
0 5 -5
-5 5 10
5 5 -5
5 5 10
5 10 10
0 -5 5
-5 5 5
0 0 -5
0 0 10
-5 -4.44089209850063e-16 10
-5 0 5
5 0 10
5 0 -5
5 0 5
0 -5 0
0 0 0
-5 0 0
0 5 5
10 5 0
5 5 0
5 10 0
-5 5 0
0 5 0
0 10 0
5 10 5
5 -5 0
5 0 0
10 0 0

CELLS 70 210
2 12 5
2 13 3
2 18 17
2 2 32
2 11 7
2 18 14
2 10 8
2 15 8
2 3 21
2 6 16
2 25 7
2 7 5
2 21 4
2 16 7
2 17 9
2 15 23
2 0 2
2 9 7
2 6 21
2 21 19
2 12 11
2 2 21
2 6 25
2 2 11
2 29 14
2 14 25
2 17 16
2 25 1
2 28 32
2 19 11
2 14 9
2 20 10
2 23 6
2 16 19
2 15 20
2 34 21
2 22 23
2 23 24
2 35 4
2 13 6
2 31 1
2 24 18
2 10 27
2 26 0
2 2 25
2 26 27
2 27 28
2 1 5
2 8 30
2 0 4
2 30 29
2 31 30
2 33 3
2 22 13
2 30 27
2 31 28
2 30 23
2 29 24
2 32 12
2 6 18
2 20 34
2 32 1
2 30 25
2 33 34
2 35 34
2 27 2
2 27 34
2 26 35
2 22 33
2 23 34

CELL_TYPES 70
3 
3 
3 
3 
3 
3 
3 
3 
3 
3 
3 
3 
3 
3 
3 
3 
3 
3 
3 
3 
3 
3 
3 
3 
3 
3 
3 
3 
3 
3 
3 
3 
3 
3 
3 
3 
3 
3 
3 
3 
3 
3 
3 
3 
3 
3 
3 
3 
3 
3 
3 
3 
3 
3 
3 
3 
3 
3 
3 
3 
3 
3 
3 
3 
3 
3 
3 
3 
3 
3 
POINT_DATA 36
SCALARS GMDS_ID int 1
LOOKUP_TABLE default
0 6 7 8 9 11 12 14 15 16 18 19 20 21 22 24 25 26 28 30 31 32 33 34 35 36 37 38 39 40 41 42 44 45 46 47 
SCALARS geom_link_dim int 1
LOOKUP_TABLE default
1 1 1 1 1 0 1 1 1 0 1 1 0 1 1 1 1 0 1 1 1 1 1 1 1 1 1 1 1 1 1 1 1 1 1 1 
SCALARS geom_link_id int 1
LOOKUP_TABLE default
22 3 8 32 30 -1 14 16 18 -1 17 15 -1 27 6 19 20 -1 13 24 25 23 28 12 11 2 21 10 9 5 1 4 7 31 26 29 


CELL_DATA 70
SCALARS GMDS_ID int 1
LOOKUP_TABLE default
0 1 2 3 4 5 6 12 17 18 20 25 27 29 31 32 35 36 39 40 42 44 46 47 50 52 55 59 60 63 64 65 69 70 71 72 73 74 75 76 77 78 80 82 84 85 86 87 90 94 96 97 98 99 100 101 102 103 105 106 108 110 112 113 114 115 116 117 118 119 

SCALARS geom_link_dim int 1
LOOKUP_TABLE default
0 2 0 2 2 2 2 2 2 2 2 0 2 2 0 2 2 0 2 2 0 2 0 2 2 2 0 2 2 2 0 2 2 2 2 2 2 2 2 2 2 2 2 2 0 2 2 0 2 2 2 2 2 2 2 2 2 2 0 2 2 2 2 2 2 2 2 2 2 2 

SCALARS geom_link_id int 1
LOOKUP_TABLE default
0 17 0 29 37 58 41 50 34 25 44 0 20 31 0 26 38 0 1 28 0 10 0 35 48 23 0 42 32 36 0 53 8 49 47 7 52 27 57 45 43 54 24 22 0 39 33 0 18 46 15 51 59 40 12 21 2 60 0 19 13 30 9 16 14 3 6 56 55 4 

