# vtk DataFile Version 3.0
Generated by GMDS VTK Writer

ASCII
DATASET UNSTRUCTURED_GRID
POINTS 51 float
5 0 5
10 -5 -5
10 0 5
-5 10 10
10 -4.44089209850063e-16 -5
-5 5 -5
-5 5 10
5 -5 -5
5 -5 10
5 5 10
5 5 -5
5 10 10
5 10 -5
0 -5 -5
0 -5 10
0 5 10
0 5 -5
0 10 10
0 10 -5
5 0 10
5 0 -5
0 0 -5
0 0 10
-5 -4.44089209850063e-16 10
-5 -4.44089209850063e-16 -5
5 5 5
10 5 5
10 -5 5
5 -5 5
5 10 5
0 10 5
0 5 5
-5 10 5
-5 5 5
-5 0 5
0 0 5
0 -5 5
10 0 0
5 0 0
5 5 0
10 5 0
10 -5 -4.44089209850063e-16
5 -5 0
5 10 0
0 10 0
0 5 0
-5 10 -4.44089209850063e-16
-5 5 0
-5 0 0
0 0 0
0 -5 0

CELLS 108 324
2 7 13
2 15 6
2 39 25
2 1 7
2 9 15
2 20 38
2 26 25
2 25 0
2 6 3
2 8 19
2 25 9
2 1 4
2 37 40
2 8 14
2 37 2
2 20 10
2 38 0
2 10 39
2 39 38
2 2 0
2 7 20
2 19 9
2 11 9
2 40 26
2 12 10
2 10 16
2 16 5
2 4 37
2 2 26
2 40 39
2 11 17
2 17 3
2 12 18
2 15 17
2 37 38
2 16 18
2 4 20
2 13 21
2 21 16
2 14 22
2 22 15
2 0 19
2 23 6
2 24 5
2 1 41
2 23 22
2 41 27
2 24 21
2 19 22
2 20 21
2 28 8
2 27 28
2 28 0
2 27 2
2 29 11
2 30 17
2 31 15
2 25 29
2 29 30
2 31 30
2 25 31
2 32 3
2 33 6
2 32 30
2 32 33
2 33 31
2 34 23
2 35 22
2 35 34
2 31 35
2 33 34
2 36 14
2 28 36
2 36 35
2 0 35
2 7 42
2 42 28
2 41 42
2 42 38
2 41 37
2 12 43
2 43 29
2 18 44
2 44 30
2 16 45
2 45 31
2 39 43
2 43 44
2 45 44
2 39 45
2 46 32
2 5 47
2 47 33
2 46 44
2 46 47
2 47 45
2 24 48
2 48 34
2 21 49
2 49 35
2 49 48
2 45 49
2 47 48
2 13 50
2 50 36
2 42 50
2 50 49
2 38 49

CELL_TYPES 108
3 
3 
3 
3 
3 
3 
3 
3 
3 
3 
3 
3 
3 
3 
3 
3 
3 
3 
3 
3 
3 
3 
3 
3 
3 
3 
3 
3 
3 
3 
3 
3 
3 
3 
3 
3 
3 
3 
3 
3 
3 
3 
3 
3 
3 
3 
3 
3 
3 
3 
3 
3 
3 
3 
3 
3 
3 
3 
3 
3 
3 
3 
3 
3 
3 
3 
3 
3 
3 
3 
3 
3 
3 
3 
3 
3 
3 
3 
3 
3 
3 
3 
3 
3 
3 
3 
3 
3 
3 
3 
3 
3 
3 
3 
3 
3 
3 
3 
3 
3 
3 
3 
3 
3 
3 
3 
3 
3 
POINT_DATA 51
SCALARS GMDS_ID int 1
LOOKUP_TABLE default
0 3 4 5 6 8 9 12 13 14 15 16 17 18 19 20 21 22 23 24 25 26 27 28 29 30 31 32 33 34 35 36 37 38 39 40 41 42 43 44 45 46 47 48 49 50 51 52 53 54 55 
SCALARS geom_link_dim_0 int 1
LOOKUP_TABLE default
0 0 0 0 0 0 0 0 0 0 0 0 0 0 0 0 0 0 0 0 0 0 0 0 0 0 0 0 0 0 0 0 0 0 0 0 0 0 0 0 0 0 0 0 0 0 0 0 0 0 0 
SCALARS geom_link_id_0 int 1
LOOKUP_TABLE default
0 0 0 0 0 0 0 0 0 0 0 0 0 0 0 0 0 0 0 0 0 0 0 0 0 0 0 0 0 0 0 0 0 0 0 0 0 0 0 0 0 0 0 0 0 0 0 0 0 0 0 


CELL_DATA 108
SCALARS GMDS_ID int 1
LOOKUP_TABLE default
1 3 4 6 7 11 12 14 15 17 18 19 20 21 22 25 27 28 30 31 33 35 36 37 38 39 40 41 42 43 45 46 47 49 50 51 52 53 54 55 56 57 58 60 61 62 63 64 65 66 69 70 71 72 74 76 78 79 80 81 82 84 86 87 88 89 91 93 94 95 96 98 99 100 101 102 103 104 105 106 107 108 109 110 111 112 113 114 115 116 118 119 120 121 122 123 124 125 126 127 128 129 130 131 132 133 134 135 

SCALARS geom_link_dim_0 int 1
LOOKUP_TABLE default
0 0 0 0 0 0 0 0 0 0 0 0 0 0 0 0 0 0 0 0 0 0 0 0 0 0 0 0 0 0 0 0 0 0 0 0 0 0 0 0 0 0 0 0 0 0 0 0 0 0 0 0 0 0 0 0 0 0 0 0 0 0 0 0 0 0 0 0 0 0 0 0 0 0 0 0 0 0 0 0 0 0 0 0 0 0 0 0 0 0 0 0 0 0 0 0 0 0 0 0 0 0 0 0 0 0 0 0 

SCALARS geom_link_id_0 int 1
LOOKUP_TABLE default
0 0 0 0 0 0 0 0 0 0 0 0 0 0 0 0 0 0 0 0 0 0 0 0 0 0 0 0 0 0 0 0 0 0 0 0 0 0 0 0 0 0 0 0 0 0 0 0 0 0 0 0 0 0 0 0 0 0 0 0 0 0 0 0 0 0 0 0 0 0 0 0 0 0 0 0 0 0 0 0 0 0 0 0 0 0 0 0 0 0 0 0 0 0 0 0 0 0 0 0 0 0 0 0 0 0 0 0 

