# vtk DataFile Version 3.0
Generated by GMDS VTK Writer

ASCII
DATASET UNSTRUCTURED_GRID
POINTS 28 float
-5 10 -5
10 -4.44089209850063e-16 10
10 -5 -5
-5 10 10
10 -4.44089209850063e-16 -5
10 -5 10
-5 5 -5
-5 5 10
10 5 10
10 5 -5
5 -5 -5
5 -5 10
5 5 10
5 5 -5
5 10 10
5 10 -5
0 -5 -5
0 -5 10
0 5 10
0 5 -5
0 10 10
0 10 -5
5 0 10
5 0 -5
0 0 -5
0 0 10
-5 -4.44089209850063e-16 10
-5 -4.44089209850063e-16 -5

CELLS 54 162
2 1 22
2 10 16
2 5 11
2 18 7
2 23 22
2 2 10
2 12 18
2 0 3
2 5 1
2 2 5
2 6 0
2 7 3
2 11 22
2 2 4
2 6 7
2 11 17
2 9 8
2 8 12
2 23 13
2 9 13
2 4 1
2 10 11
2 12 13
2 1 8
2 10 23
2 4 9
2 22 12
2 14 12
2 15 14
2 15 13
2 13 19
2 19 6
2 16 17
2 18 19
2 14 20
2 20 3
2 15 21
2 21 0
2 18 20
2 20 21
2 19 21
2 4 23
2 16 24
2 24 19
2 17 25
2 25 18
2 26 7
2 27 6
2 24 25
2 26 25
2 27 26
2 27 24
2 22 25
2 23 24

CELL_TYPES 54
3 
3 
3 
3 
3 
3 
3 
3 
3 
3 
3 
3 
3 
3 
3 
3 
3 
3 
3 
3 
3 
3 
3 
3 
3 
3 
3 
3 
3 
3 
3 
3 
3 
3 
3 
3 
3 
3 
3 
3 
3 
3 
3 
3 
3 
3 
3 
3 
3 
3 
3 
3 
3 
3 
POINT_DATA 28
SCALARS GMDS_ID int 1
LOOKUP_TABLE default
1 2 3 5 6 7 8 9 10 11 12 13 14 15 16 17 18 19 20 21 22 23 24 25 26 27 28 29 
SCALARS geom_link_dim_0 int 1
LOOKUP_TABLE default
0 0 0 0 0 0 0 0 0 0 0 0 0 0 0 0 0 0 0 0 0 0 0 0 0 0 0 0 
SCALARS geom_link_id_0 int 1
LOOKUP_TABLE default
0 0 0 0 0 0 0 0 0 0 0 0 0 0 0 0 0 0 0 0 0 0 0 0 0 0 0 0 


CELL_DATA 54
SCALARS GMDS_ID int 1
LOOKUP_TABLE default
0 1 2 3 4 6 7 9 10 11 13 15 17 19 20 21 22 24 25 26 27 28 30 32 33 34 35 36 37 38 39 40 41 43 45 46 47 48 49 50 51 52 53 54 55 56 58 60 61 62 63 64 65 66 

SCALARS geom_link_dim_0 int 1
LOOKUP_TABLE default
0 0 0 0 0 0 0 0 0 0 0 0 0 0 0 0 0 0 0 0 0 0 0 0 0 0 0 0 0 0 0 0 0 0 0 0 0 0 0 0 0 0 0 0 0 0 0 0 0 0 0 0 0 0 

SCALARS geom_link_id_0 int 1
LOOKUP_TABLE default
0 0 0 0 0 0 0 0 0 0 0 0 0 0 0 0 0 0 0 0 0 0 0 0 0 0 0 0 0 0 0 0 0 0 0 0 0 0 0 0 0 0 0 0 0 0 0 0 0 0 0 0 0 0 

