# vtk DataFile Version 3.0
Generated by GMDS VTK Writer

ASCII
DATASET UNSTRUCTURED_GRID
POINTS 47 float
-5 -5 -5
10 10 -5
10 -5 -5
-5 -5 10
-5 10 10
10 10 10
10 -5 10
-5 -8.88178419700125e-16 -5
-5 -8.88178419700125e-16 10
10 -8.88178419700125e-16 10
10 -8.88178419700125e-16 -5
5 -5 -5
5 -5 10
5 0 10
5 0 -5
5 10 10
5 10 -5
10 5 10
10 5 -5
5 5 -5
5 5 10
-5 5 -5
-5 5 10
10 5 5
5 5 5
5 10 5
10 10 5
10 0 5
5 0 5
10 -5 5
5 -5 5
-5 0 5
-5 -5 5
-5 5 5
-5 10 5
4.44089209850063e-16 -5 -5
0 0 -5
-4.44089209850063e-16 0 5
0 -5 5
0 0 10
4.44089209850063e-16 -5 10
0 5 -5
0 5 5
0 5 10
4.44089209850063e-16 10 -5
0 10 5
4.44089209850063e-16 10 10

CELLS 101 303
2 9 17
2 6 12
2 19 16
2 17 5
2 2 11
2 14 19
2 36 37
2 35 11
2 36 14
2 0 35
2 0 7
2 25 15
2 3 8
2 24 20
2 6 9
2 23 17
2 2 10
2 18 23
2 35 38
2 10 18
2 7 36
2 18 1
2 9 13
2 10 14
2 35 36
2 12 13
2 37 38
2 11 14
2 5 15
2 1 16
2 19 24
2 31 37
2 16 25
2 13 20
2 20 15
2 37 28
2 18 19
2 32 38
2 17 20
2 7 21
2 8 22
2 22 4
2 38 30
2 1 26
2 26 5
2 23 24
2 25 24
2 26 25
2 26 23
2 10 27
2 27 9
2 14 28
2 28 13
2 27 28
2 28 24
2 27 23
2 2 29
2 29 6
2 11 30
2 30 12
2 29 27
2 30 28
2 29 30
2 7 31
2 31 8
2 0 32
2 32 3
2 32 31
2 21 33
2 33 22
2 31 33
2 34 4
2 34 33
2 8 39
2 39 13
2 3 40
2 40 12
2 39 37
2 40 39
2 40 38
2 21 41
2 41 19
2 33 42
2 42 24
2 36 41
2 41 42
2 37 42
2 22 43
2 43 20
2 43 42
2 39 43
2 44 16
2 34 45
2 45 25
2 44 41
2 42 45
2 44 45
2 4 46
2 46 15
2 46 43
2 46 45

CELL_TYPES 101
3 
3 
3 
3 
3 
3 
3 
3 
3 
3 
3 
3 
3 
3 
3 
3 
3 
3 
3 
3 
3 
3 
3 
3 
3 
3 
3 
3 
3 
3 
3 
3 
3 
3 
3 
3 
3 
3 
3 
3 
3 
3 
3 
3 
3 
3 
3 
3 
3 
3 
3 
3 
3 
3 
3 
3 
3 
3 
3 
3 
3 
3 
3 
3 
3 
3 
3 
3 
3 
3 
3 
3 
3 
3 
3 
3 
3 
3 
3 
3 
3 
3 
3 
3 
3 
3 
3 
3 
3 
3 
3 
3 
3 
3 
3 
3 
3 
3 
3 
3 
3 
POINT_DATA 47
SCALARS GMDS_ID int 1
LOOKUP_TABLE default
0 2 3 4 5 6 7 8 9 10 11 12 13 14 15 16 17 18 19 20 21 22 23 24 25 26 27 28 29 30 31 32 33 34 35 36 37 38 39 40 41 42 43 44 45 46 47 
SCALARS geom_link_dim int 1
LOOKUP_TABLE default
0 0 0 0 0 0 0 0 0 0 0 0 0 1 1 0 0 0 0 1 1 0 0 1 0 1 0 1 0 0 1 1 0 1 0 0 1 0 1 1 0 1 1 1 0 1 0 
SCALARS geom_link_id int 1
LOOKUP_TABLE default
-1 -1 -1 -1 -1 -1 -1 -1 -1 -1 -1 -1 -1 24 25 -1 -1 -1 -1 17 15 -1 -1 22 0 7 -1 30 0 -1 32 13 -1 6 -1 -1 19 0 27 20 -1 18 2 16 -1 3 -1 


CELL_DATA 101
SCALARS GMDS_ID int 1
LOOKUP_TABLE default
1 2 3 5 6 7 8 9 10 11 12 13 14 15 16 17 18 19 20 21 22 23 24 26 28 29 30 31 32 34 36 37 38 39 40 41 42 43 44 45 47 48 50 52 53 54 55 56 57 58 59 60 61 62 63 64 65 66 67 68 69 70 71 72 73 74 75 77 79 80 82 84 86 87 88 89 90 91 92 93 94 95 96 97 98 99 100 101 102 103 104 106 107 108 109 110 111 112 113 114 115 

SCALARS geom_link_dim int 1
LOOKUP_TABLE default
0 0 0 0 0 2 0 0 2 0 0 0 0 0 0 0 0 0 0 0 0 0 0 0 0 0 0 0 0 0 0 0 0 2 0 0 0 0 0 0 0 0 2 0 0 0 0 0 0 0 0 0 0 0 0 2 0 0 0 0 0 0 0 0 0 0 0 0 0 0 2 0 0 0 2 0 0 0 0 0 0 2 2 0 2 0 0 0 2 0 2 0 0 2 0 2 0 0 0 0 0 

SCALARS geom_link_id int 1
LOOKUP_TABLE default
0 0 0 0 0 53 0 0 47 0 0 0 0 0 0 0 0 0 0 0 0 0 0 0 0 0 0 0 0 0 0 0 0 36 0 0 0 0 0 0 0 0 17 0 0 0 0 0 0 0 0 0 0 0 0 46 0 0 0 0 0 0 0 0 0 0 0 0 0 0 58 0 0 0 49 0 0 0 0 0 0 41 23 0 50 0 0 0 37 0 31 0 0 30 0 42 0 0 0 0 0 

