# vtk DataFile Version 3.0
Generated by GMDS VTK Writer

ASCII
DATASET UNSTRUCTURED_GRID
POINTS 44 float
-5 -5 -5
-5 10 -5
10 10 10
10 -5 10
8.88178419700125e-16 10 -5
8.88178419700125e-16 -5 -5
8.88178419700125e-16 -5 10
8.88178419700125e-16 10 10
10 5 -5
10 5 10
0 5 10
0 5 -5
-5 5 10
-5 5 -5
5 5 -5
5 5 10
5 10 10
5 10 -5
5 -5 -5
5 -5 10
0 0 -5
0 0 10
-5 -4.44089209850063e-16 10
-5 -4.44089209850063e-16 -5
10 -4.44089209850063e-16 -5
10 -4.44089209850063e-16 10
5 0 10
5 0 -5
-5 -5 -8.88178419700125e-16
0 -5 0
0 0 0
-5 0 0
10 10 -8.88178419700125e-16
10 5 0
5 5 0
5 10 0
-5 5 0
0 5 0
0 10 0
-5 10 -8.88178419700125e-16
10 -5 -8.88178419700125e-16
5 -5 0
5 0 0
10 0 0

CELLS 92 276
2 16 7
2 8 14
2 9 2
2 15 10
2 0 28
2 14 11
2 20 11
2 4 1
2 5 0
2 6 21
2 5 20
2 2 16
2 9 15
2 23 31
2 10 7
2 31 22
2 11 4
2 21 10
2 22 12
2 20 30
2 30 21
2 13 1
2 12 10
2 13 11
2 17 4
2 16 15
2 17 14
2 18 5
2 3 19
2 19 6
2 5 29
2 29 6
2 0 23
2 23 13
2 22 21
2 23 20
2 24 8
2 3 25
2 25 9
2 19 26
2 26 15
2 18 27
2 27 14
2 25 26
2 24 27
2 21 26
2 20 27
2 28 29
2 29 30
2 30 31
2 28 31
2 32 2
2 8 33
2 33 9
2 14 34
2 34 15
2 17 35
2 35 16
2 32 33
2 33 34
2 34 35
2 32 35
2 13 36
2 36 12
2 11 37
2 37 10
2 4 38
2 38 7
2 1 39
2 37 36
2 38 37
2 39 38
2 39 36
2 37 34
2 38 35
2 37 30
2 36 31
2 40 3
2 18 41
2 41 19
2 27 42
2 42 26
2 24 43
2 43 25
2 40 41
2 41 42
2 43 42
2 40 43
2 34 42
2 33 43
2 29 41
2 30 42

CELL_TYPES 92
3 
3 
3 
3 
3 
3 
3 
3 
3 
3 
3 
3 
3 
3 
3 
3 
3 
3 
3 
3 
3 
3 
3 
3 
3 
3 
3 
3 
3 
3 
3 
3 
3 
3 
3 
3 
3 
3 
3 
3 
3 
3 
3 
3 
3 
3 
3 
3 
3 
3 
3 
3 
3 
3 
3 
3 
3 
3 
3 
3 
3 
3 
3 
3 
3 
3 
3 
3 
3 
3 
3 
3 
3 
3 
3 
3 
3 
3 
3 
3 
3 
3 
3 
3 
3 
3 
3 
3 
3 
3 
3 
3 
POINT_DATA 44
SCALARS GMDS_ID int 1
LOOKUP_TABLE default
0 1 6 7 8 9 10 11 12 13 14 15 16 17 18 19 20 21 22 23 24 25 26 27 28 29 30 31 32 33 34 35 36 37 38 39 40 41 42 43 44 45 46 47 
SCALARS geom_link_dim int 1
LOOKUP_TABLE default
0 0 0 0 0 0 0 0 0 0 1 1 0 0 1 1 0 0 0 0 1 1 0 0 0 0 1 1 0 1 1 1 0 1 1 1 1 1 1 0 0 1 1 1 
SCALARS geom_link_id int 1
LOOKUP_TABLE default
-1 -1 -1 -1 -1 -1 -1 -1 -1 -1 16 18 -1 -1 17 15 -1 -1 -1 -1 19 20 -1 -1 -1 -1 24 25 -1 28 12 11 -1 21 10 9 5 1 4 -1 -1 31 26 29 


CELL_DATA 92
SCALARS GMDS_ID int 1
LOOKUP_TABLE default
0 2 3 4 5 6 12 13 15 16 18 20 22 24 25 26 27 29 31 32 34 35 36 38 40 42 44 46 47 48 50 51 52 53 55 57 59 60 61 62 63 64 65 67 69 70 71 72 73 74 75 77 78 79 80 81 82 83 84 85 86 87 88 89 90 91 92 93 94 96 97 98 99 100 101 102 103 105 106 107 108 109 110 111 112 113 114 115 116 117 118 119 

SCALARS geom_link_dim int 1
LOOKUP_TABLE default
0 0 0 2 0 2 2 0 0 0 0 0 0 0 0 0 0 2 0 0 0 0 0 0 0 0 0 0 0 0 0 0 0 0 0 0 0 0 0 0 2 0 2 0 0 2 2 0 2 2 0 0 0 0 2 0 0 0 0 2 2 0 0 0 0 0 0 0 0 2 2 0 0 0 2 0 2 0 0 0 2 0 0 0 0 2 2 0 0 2 2 0 

SCALARS geom_link_id int 1
LOOKUP_TABLE default
0 0 0 37 0 41 50 0 0 0 0 0 0 0 0 0 0 31 0 0 0 0 0 0 0 0 0 0 0 0 0 0 0 0 0 0 0 0 0 0 36 0 53 0 0 49 47 0 52 27 0 0 0 0 24 0 0 0 0 39 33 0 0 0 0 0 0 0 0 15 51 0 0 0 21 0 60 0 0 0 13 0 0 0 0 16 14 0 0 56 55 0 

