# vtk DataFile Version 3.0
Generated by GMDS VTK Writer

ASCII
DATASET UNSTRUCTURED_GRID
POINTS 42 float
-5 -5 -5
-5 10 -5
10 -5 -5
-5 10 10
8.88178419700125e-16 10 -5
8.88178419700125e-16 -5 -5
5 10 -5
5 -5 -5
5 -5 10
10 10 -8.88178419700125e-16
10 -5 -8.88178419700125e-16
5 -5 0
5 10 0
-5 -5 -8.88178419700125e-16
-5 10 -8.88178419700125e-16
10 10 5
10 -5 5
5 -5 5
5 10 5
-5 -5 5
-5 10 5
0 10 0
0 -5 0
0 10 5
0 -5 5
8.88178419700125e-16 10 10
8.88178419700125e-16 -5 10
10 5 -5
5 5 -5
5 5 0
10 5 0
5 5 5
10 5 5
0 5 -5
0 5 0
-5 5 -5
-5 5 0
-5 5 5
0 5 5
-5 5 10
0 5 10
5 5 10

CELLS 87 261
2 2 10
2 4 21
2 14 21
2 22 11
2 17 8
2 4 6
2 5 7
2 9 15
2 11 29
2 2 7
2 10 30
2 1 4
2 2 27
2 0 5
2 11 17
2 10 16
2 7 11
2 6 12
2 10 11
2 9 12
2 0 13
2 13 22
2 1 14
2 21 12
2 30 9
2 29 12
2 12 18
2 16 17
2 15 18
2 13 19
2 14 20
2 20 3
2 28 6
2 7 28
2 5 22
2 20 23
2 23 18
2 19 24
2 24 17
2 21 23
2 22 24
2 3 25
2 26 8
2 25 23
2 26 24
2 27 28
2 28 29
2 30 29
2 27 30
2 17 31
2 31 18
2 16 32
2 32 15
2 29 31
2 32 31
2 30 32
2 5 33
2 33 4
2 22 34
2 34 21
2 33 34
2 29 34
2 33 28
2 0 35
2 35 1
2 13 36
2 36 14
2 35 36
2 36 34
2 35 33
2 19 37
2 37 20
2 24 38
2 38 23
2 36 37
2 37 38
2 34 38
2 31 38
2 39 3
2 26 40
2 40 25
2 39 37
2 38 40
2 39 40
2 8 41
2 41 31
2 41 40

CELL_TYPES 87
3 
3 
3 
3 
3 
3 
3 
3 
3 
3 
3 
3 
3 
3 
3 
3 
3 
3 
3 
3 
3 
3 
3 
3 
3 
3 
3 
3 
3 
3 
3 
3 
3 
3 
3 
3 
3 
3 
3 
3 
3 
3 
3 
3 
3 
3 
3 
3 
3 
3 
3 
3 
3 
3 
3 
3 
3 
3 
3 
3 
3 
3 
3 
3 
3 
3 
3 
3 
3 
3 
3 
3 
3 
3 
3 
3 
3 
3 
3 
3 
3 
3 
3 
3 
3 
3 
3 
POINT_DATA 42
SCALARS GMDS_ID int 1
LOOKUP_TABLE default
0 1 3 5 6 7 8 9 10 12 13 14 15 16 17 18 19 20 21 22 23 24 25 26 27 28 29 30 31 32 33 34 35 36 37 38 39 40 41 42 43 44 
SCALARS geom_link_dim int 1
LOOKUP_TABLE default
0 0 0 0 0 0 0 0 0 0 0 1 1 0 0 0 0 1 1 0 0 1 1 1 1 0 0 0 1 1 1 1 1 1 0 0 1 1 1 0 1 1 
SCALARS geom_link_id int 1
LOOKUP_TABLE default
-1 -1 -1 -1 -1 -1 -1 -1 -1 -1 -1 31 9 -1 -1 -1 -1 32 7 -1 -1 4 28 3 27 -1 -1 -1 17 10 21 8 22 18 0 -1 5 6 2 -1 16 15 


CELL_DATA 87
SCALARS GMDS_ID int 1
LOOKUP_TABLE default
1 3 6 7 8 9 10 11 13 14 15 16 17 18 21 23 24 26 29 31 32 33 34 35 36 38 39 42 44 45 47 48 49 51 52 53 54 55 56 57 59 60 63 64 66 67 68 69 70 71 72 73 74 75 76 77 78 79 80 81 82 83 84 85 86 87 88 89 90 91 92 93 94 95 96 97 98 99 101 102 103 104 105 106 107 109 110 

SCALARS geom_link_dim int 1
LOOKUP_TABLE default
0 0 0 2 0 0 0 0 0 0 0 0 0 0 2 0 0 0 0 0 0 0 0 2 0 2 2 0 0 0 0 0 0 0 0 0 2 0 2 2 2 0 0 0 0 0 2 2 0 0 2 0 0 0 2 2 0 0 0 0 0 0 2 0 0 0 0 0 0 0 0 0 0 2 2 2 0 2 0 0 0 0 2 0 0 2 2 

SCALARS geom_link_id int 1
LOOKUP_TABLE default
0 0 0 55 0 0 0 0 0 0 0 0 0 0 59 0 0 0 0 0 0 0 0 21 0 33 32 0 0 0 0 0 0 0 0 0 30 0 17 43 40 0 0 0 0 0 24 39 0 0 29 0 0 0 38 22 0 0 0 0 0 0 41 0 0 0 0 0 0 0 0 0 0 42 48 23 0 5 0 0 0 0 44 0 0 35 37 

