# vtk DataFile Version 3.0
Generated by GMDS VTK Writer

ASCII
DATASET UNSTRUCTURED_GRID
POINTS 46 float
-5 -5 -5
-5 10 -5
10 10 -5
-5 -5 10
10 10 10
10 -5 10
8.88178419700125e-16 10 -5
8.88178419700125e-16 -5 -5
8.88178419700125e-16 -5 10
8.88178419700125e-16 10 10
10 5 -5
10 5 10
0 5 10
0 5 -5
-5 5 10
-5 5 -5
5 5 -5
5 5 10
5 10 10
5 10 -5
5 -5 -5
5 -5 10
0 0 -5
0 0 10
-5 -4.44089209850063e-16 10
-5 -4.44089209850063e-16 -5
10 -4.44089209850063e-16 -5
10 -4.44089209850063e-16 10
5 0 10
5 0 -5
-5 -5 -8.88178419700125e-16
0 -5 0
0 0 -8.88178419700125e-16
-5 0 0
10 10 -8.88178419700125e-16
10 5 0
5 5 -8.88178419700125e-16
5 10 0
-5 5 0
0 5 0
0 10 0
-5 10 -8.88178419700125e-16
10 -5 -8.88178419700125e-16
5 -5 0
5 0 0
10 0 0

CELLS 98 294
2 18 9
2 30 3
2 10 16
2 11 4
2 17 12
2 0 30
2 16 13
2 10 2
2 22 13
2 6 1
2 3 24
2 7 0
2 8 23
2 8 3
2 7 22
2 4 18
2 11 17
2 25 33
2 12 9
2 33 24
2 13 6
2 23 12
2 24 14
2 22 32
2 32 23
2 15 1
2 14 12
2 15 13
2 2 19
2 19 6
2 18 17
2 19 16
2 20 7
2 5 21
2 21 8
2 7 31
2 31 8
2 0 25
2 25 15
2 24 23
2 25 22
2 26 10
2 5 27
2 27 11
2 21 28
2 28 17
2 20 29
2 29 16
2 27 28
2 26 29
2 23 28
2 22 29
2 30 31
2 31 32
2 32 33
2 30 33
2 2 34
2 34 4
2 10 35
2 35 11
2 16 36
2 36 17
2 19 37
2 37 18
2 34 35
2 35 36
2 36 37
2 34 37
2 15 38
2 38 14
2 13 39
2 39 12
2 6 40
2 40 9
2 1 41
2 39 38
2 40 39
2 41 40
2 41 38
2 39 36
2 40 37
2 39 32
2 38 33
2 42 5
2 20 43
2 43 21
2 29 44
2 44 28
2 26 45
2 45 27
2 42 43
2 43 44
2 45 44
2 42 45
2 36 44
2 35 45
2 31 43
2 32 44

CELL_TYPES 98
3 
3 
3 
3 
3 
3 
3 
3 
3 
3 
3 
3 
3 
3 
3 
3 
3 
3 
3 
3 
3 
3 
3 
3 
3 
3 
3 
3 
3 
3 
3 
3 
3 
3 
3 
3 
3 
3 
3 
3 
3 
3 
3 
3 
3 
3 
3 
3 
3 
3 
3 
3 
3 
3 
3 
3 
3 
3 
3 
3 
3 
3 
3 
3 
3 
3 
3 
3 
3 
3 
3 
3 
3 
3 
3 
3 
3 
3 
3 
3 
3 
3 
3 
3 
3 
3 
3 
3 
3 
3 
3 
3 
3 
3 
3 
3 
3 
3 
POINT_DATA 46
SCALARS GMDS_ID int 1
LOOKUP_TABLE default
0 1 2 4 6 7 8 9 10 11 12 13 14 15 16 17 18 19 20 21 22 23 24 25 26 27 28 29 30 31 32 33 34 35 36 37 38 39 40 41 42 43 44 45 46 47 
SCALARS geom_link_dim int 1
LOOKUP_TABLE default
0 0 0 0 0 0 0 0 0 0 0 0 1 1 0 0 1 1 0 0 0 0 1 1 0 0 0 0 1 1 0 1 0 1 0 1 0 1 1 1 1 0 0 1 1 1 
SCALARS geom_link_id int 1
LOOKUP_TABLE default
-1 -1 -1 -1 -1 -1 -1 -1 -1 -1 -1 -1 16 18 -1 -1 17 15 -1 -1 -1 -1 19 20 -1 -1 -1 -1 24 25 -1 28 0 11 -1 21 0 9 5 1 4 -1 -1 31 26 29 


CELL_DATA 98
SCALARS GMDS_ID int 1
LOOKUP_TABLE default
0 1 2 3 4 5 6 7 12 13 14 15 16 17 18 20 22 24 25 26 27 29 31 32 34 35 36 38 39 40 42 44 46 47 48 50 51 52 53 55 57 59 60 61 62 63 64 65 67 69 70 71 72 73 74 75 76 77 78 79 80 81 82 83 84 85 86 87 88 89 90 91 92 93 94 96 97 98 99 100 101 102 103 105 106 107 108 109 110 111 112 113 114 115 116 117 118 119 

SCALARS geom_link_dim int 1
LOOKUP_TABLE default
0 0 0 0 2 0 2 0 2 0 0 0 0 0 0 0 0 0 0 0 0 2 0 0 0 0 0 0 0 0 0 0 0 0 0 0 0 0 0 0 0 0 0 0 0 2 0 2 0 0 2 2 0 0 0 0 0 0 0 0 0 0 0 0 0 0 0 0 0 0 0 0 0 0 0 2 2 0 0 0 2 0 2 0 0 0 2 0 0 0 0 2 2 0 0 2 2 0 

SCALARS geom_link_id int 1
LOOKUP_TABLE default
0 0 0 0 37 0 41 0 50 0 0 0 0 0 0 0 0 0 0 0 0 31 0 0 0 0 0 0 0 0 0 0 0 0 0 0 0 0 0 0 0 0 0 0 0 36 0 53 0 0 49 47 0 0 0 0 0 0 0 0 0 0 0 0 0 0 0 0 0 0 0 0 0 0 0 15 51 0 0 0 21 0 60 0 0 0 13 0 0 0 0 16 14 0 0 56 55 0 

