# vtk DataFile Version 3.0
Generated by GMDS VTK Writer

ASCII
DATASET UNSTRUCTURED_GRID
POINTS 32 float
10 0 0
-5 0 0
10 0 5
-5 0 5
10 5 0
-5 5 0
-5 5 5
10 5 5
0 10 0
0 5 0
0 5 -5
0 -5 0
0 0 0
0 0 5
0 -5 5
0 0 -5
0 0 10
0 10 5
0 5 5
0 5 10
5 10 0
5 5 0
5 5 -5
5 -5 0
5 0 0
5 0 5
5 -5 5
5 0 -5
5 0 10
5 10 5
5 5 5
5 5 10

CELLS 60 180
2 12 24
2 9 21
2 0 2
2 5 9
2 20 21
2 11 23
2 4 0
2 24 0
2 8 20
2 1 3
2 21 22
2 5 1
2 10 22
2 6 3
2 7 2
2 5 6
2 4 7
2 21 4
2 8 9
2 10 9
2 1 12
2 3 13
2 11 12
2 12 13
2 14 13
2 11 14
2 15 12
2 16 13
2 12 9
2 15 10
2 6 18
2 8 17
2 17 18
2 9 18
2 13 18
2 18 19
2 16 19
2 13 25
2 25 2
2 14 26
2 23 24
2 24 25
2 25 26
2 23 26
2 15 27
2 24 27
2 16 28
2 25 28
2 21 24
2 22 27
2 17 29
2 18 30
2 30 7
2 20 29
2 29 30
2 21 30
2 25 30
2 19 31
2 30 31
2 28 31

CELL_TYPES 60
3 
3 
3 
3 
3 
3 
3 
3 
3 
3 
3 
3 
3 
3 
3 
3 
3 
3 
3 
3 
3 
3 
3 
3 
3 
3 
3 
3 
3 
3 
3 
3 
3 
3 
3 
3 
3 
3 
3 
3 
3 
3 
3 
3 
3 
3 
3 
3 
3 
3 
3 
3 
3 
3 
3 
3 
3 
3 
3 
3 
POINT_DATA 32
SCALARS GMDS_ID int 1
LOOKUP_TABLE default
3 4 5 6 7 8 9 10 11 12 13 14 15 16 17 19 20 21 22 23 24 25 26 27 28 29 30 31 32 33 34 35 
SCALARS geom_link_dim int 1
LOOKUP_TABLE default
1 1 1 1 1 1 1 1 1 1 1 1 1 1 1 1 1 1 1 1 1 1 1 1 1 1 1 1 1 1 1 1 
SCALARS geom_link_id int 1
LOOKUP_TABLE default
29 11 30 13 21 5 6 22 4 1 18 28 12 14 27 19 20 3 2 16 9 10 17 31 26 23 32 25 24 7 8 15 


CELL_DATA 60
SCALARS GMDS_ID int 1
LOOKUP_TABLE default
0 1 3 5 6 7 9 10 12 13 14 15 16 17 18 19 20 21 22 23 25 26 27 28 29 30 34 36 37 38 39 40 41 42 43 44 45 46 47 48 49 50 51 52 53 54 55 56 57 58 59 60 61 62 63 64 65 66 67 68 

SCALARS geom_link_dim int 1
LOOKUP_TABLE default
2 2 2 2 2 2 2 2 2 2 2 2 2 2 2 2 2 2 2 2 2 2 2 2 2 2 2 2 2 2 2 2 2 2 2 2 2 2 2 2 2 2 2 2 2 2 2 2 2 2 2 2 2 2 2 2 2 2 2 2 

SCALARS geom_link_id int 1
LOOKUP_TABLE default
4 12 57 15 33 55 56 14 21 54 24 60 41 58 46 48 22 39 51 18 27 19 52 8 45 40 26 25 2 50 23 43 42 9 11 44 31 1 20 17 16 7 34 59 47 13 49 28 6 53 30 5 38 32 29 3 10 37 35 36 

