# vtk DataFile Version 3.0
Generated by GMDS VTK Writer

ASCII
DATASET UNSTRUCTURED_GRID
POINTS 47 float
5 0 5
10 -5 -5
10 0 5
-5 10 10
10 -4.44089209850063e-16 -5
-5 5 -5
-5 5 10
5 -5 -5
5 -5 10
5 5 10
5 5 -5
5 10 10
0 -5 -5
0 -5 10
0 5 10
0 5 -5
0 10 10
5 0 10
5 0 -5
0 0 -5
0 0 10
-5 -4.44089209850063e-16 10
-5 -4.44089209850063e-16 -5
5 5 5
10 5 5
5 -5 5
5 10 5
0 10 5
0 5 5
-5 10 5
-5 5 5
-5 0 5
0 0 5
0 -5 5
10 0 0
5 0 0
5 5 0
10 5 0
10 -5 -4.44089209850063e-16
5 -5 0
5 10 0
0 10 0
0 5 0
-5 5 0
-5 0 0
0 0 0
0 -5 0

CELLS 97 291
2 7 12
2 14 6
2 36 23
2 1 7
2 9 14
2 18 35
2 24 23
2 23 0
2 6 3
2 8 17
2 23 9
2 1 4
2 34 37
2 8 13
2 34 2
2 18 10
2 35 0
2 10 36
2 36 35
2 2 0
2 7 18
2 17 9
2 11 9
2 37 24
2 10 15
2 15 5
2 4 34
2 2 24
2 37 36
2 11 16
2 16 3
2 14 16
2 34 35
2 4 18
2 12 19
2 19 15
2 13 20
2 20 14
2 0 17
2 21 6
2 22 5
2 1 38
2 21 20
2 22 19
2 17 20
2 18 19
2 25 8
2 25 0
2 26 11
2 27 16
2 28 14
2 23 26
2 26 27
2 28 27
2 23 28
2 29 3
2 30 6
2 29 27
2 29 30
2 30 28
2 31 21
2 32 20
2 32 31
2 28 32
2 30 31
2 33 13
2 25 33
2 33 32
2 0 32
2 7 39
2 39 25
2 38 39
2 39 35
2 38 34
2 40 26
2 41 27
2 15 42
2 42 28
2 36 40
2 40 41
2 42 41
2 36 42
2 5 43
2 43 30
2 43 42
2 22 44
2 44 31
2 19 45
2 45 32
2 45 44
2 42 45
2 43 44
2 12 46
2 46 33
2 39 46
2 46 45
2 35 45

CELL_TYPES 97
3 
3 
3 
3 
3 
3 
3 
3 
3 
3 
3 
3 
3 
3 
3 
3 
3 
3 
3 
3 
3 
3 
3 
3 
3 
3 
3 
3 
3 
3 
3 
3 
3 
3 
3 
3 
3 
3 
3 
3 
3 
3 
3 
3 
3 
3 
3 
3 
3 
3 
3 
3 
3 
3 
3 
3 
3 
3 
3 
3 
3 
3 
3 
3 
3 
3 
3 
3 
3 
3 
3 
3 
3 
3 
3 
3 
3 
3 
3 
3 
3 
3 
3 
3 
3 
3 
3 
3 
3 
3 
3 
3 
3 
3 
3 
3 
3 
POINT_DATA 47
SCALARS GMDS_ID int 1
LOOKUP_TABLE default
0 3 4 5 6 8 9 12 13 14 15 16 18 19 20 21 22 24 25 26 27 28 29 30 31 33 34 35 36 37 38 39 40 41 42 43 44 45 46 47 48 49 50 52 53 54 55 
SCALARS geom_link_dim_0 int 1
LOOKUP_TABLE default
0 0 0 0 0 0 0 0 0 0 0 0 0 0 0 0 0 0 0 0 0 0 0 0 0 0 0 0 0 0 0 0 0 0 0 0 0 0 0 0 0 0 0 0 0 0 0 
SCALARS geom_link_id_0 int 1
LOOKUP_TABLE default
0 0 0 0 0 0 0 0 0 0 0 0 0 0 0 0 0 0 0 0 0 0 0 0 0 0 0 0 0 0 0 0 0 0 0 0 0 0 0 0 0 0 0 0 0 0 0 


CELL_DATA 97
SCALARS GMDS_ID int 1
LOOKUP_TABLE default
1 3 4 6 7 11 12 14 15 17 18 19 20 21 22 25 27 28 30 31 33 35 36 37 39 40 41 42 43 45 46 49 50 52 53 54 55 56 57 58 60 61 62 64 65 66 69 71 74 76 78 79 80 81 82 84 86 87 88 89 91 93 94 95 96 98 99 100 101 102 103 104 105 106 108 110 111 112 113 114 115 116 119 120 123 124 125 126 127 128 129 130 131 132 133 134 135 

SCALARS geom_link_dim_0 int 1
LOOKUP_TABLE default
0 0 0 0 0 0 0 0 0 0 0 0 0 0 0 0 0 0 0 0 0 0 0 0 0 0 0 0 0 0 0 0 0 0 0 0 0 0 0 0 0 0 0 0 0 0 0 0 0 0 0 0 0 0 0 0 0 0 0 0 0 0 0 0 0 0 0 0 0 0 0 0 0 0 0 0 0 0 0 0 0 0 0 0 0 0 0 0 0 0 0 0 0 0 0 0 0 

SCALARS geom_link_id_0 int 1
LOOKUP_TABLE default
0 0 0 0 0 0 0 0 0 0 0 0 0 0 0 0 0 0 0 0 0 0 0 0 0 0 0 0 0 0 0 0 0 0 0 0 0 0 0 0 0 0 0 0 0 0 0 0 0 0 0 0 0 0 0 0 0 0 0 0 0 0 0 0 0 0 0 0 0 0 0 0 0 0 0 0 0 0 0 0 0 0 0 0 0 0 0 0 0 0 0 0 0 0 0 0 0 

