# vtk DataFile Version 3.0
Generated by GMDS VTK Writer

ASCII
DATASET UNSTRUCTURED_GRID
POINTS 53 float
10 -5 -5
-5 10 10
10 10 10
10 -5 10
-5 -8.88178419700125e-16 10
10 -8.88178419700125e-16 10
10 -8.88178419700125e-16 -5
-5 -5 -8.88178419700125e-16
10 -5 -8.88178419700125e-16
10 0 0
-5 0 0
-5 10 -8.88178419700125e-16
-8.88178419700125e-16 -5 -5
0 0 -5
0 0 0
0 -5 0
0 0 10
0 10 0
-8.88178419700125e-16 10 10
-5 5 0
0 5 0
0 5 -5
10 5 0
-5 5 10
0 5 10
10 5 10
0 -5 5
0 0 5
10 0 5
10 -5 5
10 5 5
-2.22044604925031e-16 5 5
-5 -5 5
-5 0 5
10 10 5
0 10 5
-5 5 5
-5 10 5
5 5 -5
5 5 0
5 0 0
5 0 -5
5 10 0
5 5 5
5 0 5
5 -5 -5
5 -5 0
5 -5 5
5 -5 10
5 0 10
5 5 10
5 10 5
5 10 10

CELLS 113 339
2 21 38
2 0 8
2 21 13
2 41 40
2 11 19
2 17 20
2 10 14
2 29 3
2 9 28
2 3 5
2 14 27
2 0 6
2 15 26
2 19 10
2 20 14
2 6 9
2 41 38
2 8 9
2 7 10
2 20 39
2 14 40
2 27 26
2 7 15
2 12 13
2 13 14
2 15 14
2 12 15
2 4 16
2 40 39
2 39 38
2 11 17
2 28 5
2 8 29
2 1 18
2 27 16
2 40 9
2 19 20
2 21 20
2 22 9
2 1 23
2 23 4
2 18 24
2 24 16
2 41 6
2 13 41
2 23 24
2 2 25
2 25 5
2 39 22
2 29 28
2 22 30
2 30 25
2 20 31
2 31 24
2 27 31
2 28 30
2 7 32
2 10 33
2 33 4
2 32 33
2 33 27
2 32 26
2 34 2
2 17 35
2 35 18
2 35 31
2 34 30
2 19 36
2 36 23
2 36 31
2 33 36
2 11 37
2 37 1
2 37 35
2 37 36
2 17 42
2 42 39
2 31 43
2 43 30
2 27 44
2 44 28
2 39 43
2 44 43
2 40 44
2 12 45
2 45 0
2 15 46
2 46 8
2 45 41
2 40 46
2 45 46
2 26 47
2 47 29
2 48 3
2 16 49
2 49 5
2 47 44
2 48 47
2 49 48
2 49 44
2 46 47
2 24 50
2 50 25
2 50 43
2 49 50
2 35 51
2 51 34
2 43 51
2 42 51
2 18 52
2 52 2
2 52 50
2 52 51

CELL_TYPES 113
3 
3 
3 
3 
3 
3 
3 
3 
3 
3 
3 
3 
3 
3 
3 
3 
3 
3 
3 
3 
3 
3 
3 
3 
3 
3 
3 
3 
3 
3 
3 
3 
3 
3 
3 
3 
3 
3 
3 
3 
3 
3 
3 
3 
3 
3 
3 
3 
3 
3 
3 
3 
3 
3 
3 
3 
3 
3 
3 
3 
3 
3 
3 
3 
3 
3 
3 
3 
3 
3 
3 
3 
3 
3 
3 
3 
3 
3 
3 
3 
3 
3 
3 
3 
3 
3 
3 
3 
3 
3 
3 
3 
3 
3 
3 
3 
3 
3 
3 
3 
3 
3 
3 
3 
3 
3 
3 
3 
3 
3 
3 
3 
3 
POINT_DATA 53
SCALARS GMDS_ID int 1
LOOKUP_TABLE default
3 5 6 7 9 10 11 12 13 14 15 17 18 19 20 21 22 25 26 28 29 30 31 33 34 35 36 37 38 39 40 41 42 43 44 45 46 47 48 49 50 51 53 54 55 56 57 58 59 60 61 62 63 
SCALARS geom_link_dim_0 int 1
LOOKUP_TABLE default
0 0 0 0 0 0 0 0 0 0 0 0 0 0 0 0 0 0 0 0 0 0 0 0 0 0 0 0 0 0 0 0 0 0 0 0 0 0 0 0 0 0 0 0 0 0 0 0 0 0 0 0 0 
SCALARS geom_link_id_0 int 1
LOOKUP_TABLE default
0 0 0 0 0 0 0 0 0 0 0 0 0 0 0 0 0 0 0 0 0 0 0 0 0 0 0 0 0 0 0 0 0 0 0 0 0 0 0 0 0 0 0 0 0 0 0 0 0 0 0 0 0 


CELL_DATA 113
SCALARS GMDS_ID int 1
LOOKUP_TABLE default
0 2 3 4 5 7 8 13 15 16 17 18 19 21 23 24 27 29 31 33 35 38 39 41 42 43 44 45 49 51 54 56 57 59 61 62 63 64 67 73 74 75 76 77 78 79 80 81 82 85 87 88 89 90 92 93 94 96 97 98 99 100 102 103 104 106 107 108 109 110 111 112 113 114 115 118 121 123 124 125 126 127 128 129 130 131 132 133 134 135 136 137 138 140 141 142 143 144 145 146 147 148 149 150 151 152 153 154 155 156 157 158 159 

SCALARS geom_link_dim_0 int 1
LOOKUP_TABLE default
0 0 0 0 0 0 0 0 0 0 0 0 0 0 0 0 0 0 0 0 0 0 0 0 0 0 0 0 0 0 0 0 0 0 0 0 0 0 0 0 0 0 0 0 0 0 0 0 0 0 0 0 0 0 0 0 0 0 0 0 0 0 0 0 0 0 0 0 0 0 0 0 0 0 0 0 0 0 0 0 0 0 0 0 0 0 0 0 0 0 0 0 0 0 0 0 0 0 0 0 0 0 0 0 0 0 0 0 0 0 0 0 0 

SCALARS geom_link_id_0 int 1
LOOKUP_TABLE default
0 0 0 0 0 0 0 0 0 0 0 0 0 0 0 0 0 0 0 0 0 0 0 0 0 0 0 0 0 0 0 0 0 0 0 0 0 0 0 0 0 0 0 0 0 0 0 0 0 0 0 0 0 0 0 0 0 0 0 0 0 0 0 0 0 0 0 0 0 0 0 0 0 0 0 0 0 0 0 0 0 0 0 0 0 0 0 0 0 0 0 0 0 0 0 0 0 0 0 0 0 0 0 0 0 0 0 0 0 0 0 0 0 

