# vtk DataFile Version 3.0
Generated by GMDS VTK Writer

ASCII
DATASET UNSTRUCTURED_GRID
POINTS 39 float
-5 -5 -5
-5 10 10
8.88178419700125e-16 10 -5
8.88178419700125e-16 -5 -5
5 10 -5
5 -5 -5
5 -5 10
10 10 -8.88178419700125e-16
10 -5 -8.88178419700125e-16
5 -5 0
5 10 0
-5 -5 -8.88178419700125e-16
-5 10 -8.88178419700125e-16
10 10 5
10 -5 5
5 -5 5
5 10 5
-5 -5 5
-5 10 5
0 10 0
0 -5 0
0 10 5
0 -5 5
8.88178419700125e-16 10 10
8.88178419700125e-16 -5 10
5 5 -5
5 5 0
10 5 0
5 5 5
10 5 5
0 5 -5
0 5 0
-5 5 -5
-5 5 0
-5 5 5
0 5 5
-5 5 10
0 5 10
5 5 10

CELLS 52 260
4 19 21 16 10 
4 7 10 16 13 
4 12 18 21 19 
4 9 15 28 26 
4 2 19 10 4 
4 8 9 15 14 
4 3 20 9 5 
4 0 11 20 3 
4 27 26 10 7 
4 8 9 26 27 
4 25 26 10 4 
4 5 9 26 25 
4 11 17 22 20 
4 20 22 15 9 
4 1 18 21 23 
4 24 22 15 6 
4 26 28 16 10 
4 14 15 28 29 
4 29 28 16 13 
4 8 14 29 27 
4 27 29 13 7 
4 27 26 28 29 
4 3 20 31 30 
4 30 31 19 2 
4 9 20 31 26 
4 26 31 19 10 
4 3 5 25 30 
4 30 25 4 2 
4 30 31 26 25 
4 0 11 33 32 
4 11 20 31 33 
4 33 31 19 12 
4 0 3 30 32 
4 32 33 31 30 
4 11 17 34 33 
4 33 34 18 12 
4 17 22 35 34 
4 34 35 21 18 
4 20 22 35 31 
4 31 35 21 19 
4 33 34 35 31 
4 15 22 35 28 
4 28 35 21 16 
4 31 35 28 26 
4 36 34 18 1 
4 22 24 37 35 
4 35 37 23 21 
4 36 37 23 1 
4 36 34 35 37 
4 6 15 28 38 
4 6 24 37 38 
4 37 35 28 38 

CELL_TYPES 52
9 
9 
9 
9 
9 
9 
9 
9 
9 
9 
9 
9 
9 
9 
9 
9 
9 
9 
9 
9 
9 
9 
9 
9 
9 
9 
9 
9 
9 
9 
9 
9 
9 
9 
9 
9 
9 
9 
9 
9 
9 
9 
9 
9 
9 
9 
9 
9 
9 
9 
9 
9 
POINT_DATA 39
SCALARS GMDS_ID int 1
LOOKUP_TABLE default
0 5 6 7 8 9 10 12 13 14 15 16 17 18 19 20 21 22 23 24 25 26 27 28 29 31 32 33 34 35 36 37 38 39 40 41 42 43 44 
SCALARS geom_link_dim int 1
LOOKUP_TABLE default
0 0 0 0 0 0 0 0 0 1 1 0 0 0 0 1 1 0 0 1 1 1 1 0 0 1 1 1 1 1 1 1 0 1 1 1 0 1 1 
SCALARS geom_link_id int 1
LOOKUP_TABLE default
-1 -1 -1 -1 -1 -1 -1 -1 -1 31 9 -1 -1 -1 -1 32 7 -1 -1 4 28 3 27 -1 -1 17 10 21 8 22 18 1 -1 5 6 2 -1 16 15 


CELL_DATA 52
SCALARS GMDS_ID int 1
LOOKUP_TABLE default
0 1 4 7 10 12 18 21 26 29 30 33 38 39 41 46 48 49 50 51 52 53 54 55 56 57 58 59 60 61 63 64 65 67 68 69 70 71 72 73 74 75 76 77 79 80 81 83 84 85 87 89 

SCALARS geom_link_dim int 1
LOOKUP_TABLE default
0 0 0 0 0 0 0 0 0 0 0 0 0 0 0 0 0 0 0 0 0 0 0 0 0 0 0 0 0 0 0 0 0 0 0 0 0 0 0 0 0 0 0 0 0 0 0 0 0 0 0 0 

SCALARS geom_link_id int 1
LOOKUP_TABLE default
0 0 0 0 0 0 0 0 0 0 0 0 0 0 0 0 0 0 0 0 0 0 0 0 0 0 0 0 0 0 0 0 0 0 0 0 0 0 0 0 0 0 0 0 0 0 0 0 0 0 0 0 

