# vtk DataFile Version 3.0
Generated by GMDS VTK Writer

ASCII
DATASET UNSTRUCTURED_GRID
POINTS 32 float
5 -5 0
5 10 0
0 0 5
5 0 5
5 0 10
0 0 10
0 -5 0
0 10 0
5 10 5
5 -5 5
0 -5 5
0 10 5
5 0 0
0 0 0
10 0 0
5 0 -5
0 0 -5
10 0 5
-5 0 0
-5 0 5
5 5 0
0 5 0
0 5 5
5 5 5
0 5 10
5 5 10
10 5 0
5 5 -5
0 5 -5
10 5 5
-5 5 0
-5 5 5

CELLS 36 180
4 1 7 11 8 
4 23 22 24 25 
4 3 4 25 23 
4 12 13 2 3 
4 0 9 3 12 
4 4 5 24 25 
4 0 6 10 9 
4 2 5 24 22 
4 6 10 2 13 
4 20 21 22 23 
4 0 6 13 12 
4 23 20 1 8 
4 3 2 5 4 
4 3 12 20 23 
4 22 23 8 11 
4 2 3 23 22 
4 22 21 7 11 
4 2 13 21 22 
4 20 21 7 1 
4 9 10 2 3 
4 12 13 21 20 
4 15 12 13 16 
4 12 14 17 3 
4 13 18 19 2 
4 12 14 26 20 
4 12 15 27 20 
4 13 16 28 21 
4 15 16 28 27 
4 27 20 21 28 
4 14 17 29 26 
4 3 17 29 23 
4 20 26 29 23 
4 13 18 30 21 
4 18 19 31 30 
4 2 19 31 22 
4 21 30 31 22 

CELL_TYPES 36
9 
9 
9 
9 
9 
9 
9 
9 
9 
9 
9 
9 
9 
9 
9 
9 
9 
9 
9 
9 
9 
9 
9 
9 
9 
9 
9 
9 
9 
9 
9 
9 
9 
9 
9 
9 
POINT_DATA 32
SCALARS GMDS_ID int 1
LOOKUP_TABLE default
0 1 4 5 6 7 14 15 22 23 24 25 30 31 33 34 35 36 37 38 39 40 41 42 43 44 46 47 48 49 50 51 
SCALARS geom_link_dim int 1
LOOKUP_TABLE default
1 1 1 1 1 1 1 1 1 1 1 1 1 1 1 1 1 1 1 1 1 1 1 1 1 1 1 1 1 1 1 1 
SCALARS geom_link_id int 1
LOOKUP_TABLE default
31 9 14 23 24 20 28 4 7 32 27 3 26 12 29 25 19 30 11 13 10 1 2 8 16 15 21 17 18 22 5 6 


CELL_DATA 36
SCALARS GMDS_ID int 1
LOOKUP_TABLE default
0 3 6 8 12 15 17 19 20 22 23 24 25 26 31 33 34 40 43 46 47 59 64 71 72 74 79 81 83 84 86 88 89 91 93 95 

SCALARS geom_link_dim int 1
LOOKUP_TABLE default
3 3 3 4 3 3 3 3 3 4 3 3 3 4 3 4 3 4 3 3 4 3 3 3 3 3 3 3 3 3 3 3 3 3 3 3 

SCALARS geom_link_id int 1
LOOKUP_TABLE default
8 4 15 1 2 25 29 16 24 1 5 28 30 1 13 1 7 1 14 6 1 1 22 10 21 17 3 26 12 23 20 11 27 18 9 19 

