# vtk DataFile Version 3.0
Generated by GMDS VTK Writer

ASCII
DATASET UNSTRUCTURED_GRID
POINTS 32 float
10 5 5
0 10 5
5 5 5
5 -5 5
10 0 5
0 0 5
0 5 10
0 5 -5
5 5 -5
5 5 10
0 -5 5
-5 5 5
0 0 -5
0 0 10
-5 0 5
5 0 10
5 0 -5
5 0 5
0 -5 0
0 0 0
-5 0 0
0 5 5
10 5 0
5 5 0
5 10 0
-5 5 0
0 5 0
0 10 0
5 10 5
5 -5 0
5 0 0
10 0 0

CELLS 36 180
4 18 19 5 10 
4 5 17 15 13 
4 30 31 4 17 
4 5 17 2 21 
4 18 29 3 10 
4 5 21 6 13 
4 29 30 17 3 
4 14 5 21 11 
4 2 21 6 9 
4 19 26 21 5 
4 13 15 9 6 
4 20 25 11 14 
4 12 16 8 7 
4 19 20 14 5 
4 22 23 2 0 
4 19 30 17 5 
4 26 27 1 21 
4 24 27 1 28 
4 2 17 15 9 
4 10 3 17 5 
4 22 31 4 0 
4 4 17 2 0 
4 7 8 23 26 
4 23 30 17 2 
4 24 23 26 27 
4 7 12 19 26 
4 20 19 26 25 
4 25 26 21 11 
4 23 24 28 2 
4 23 26 21 2 
4 8 16 30 23 
4 28 2 21 1 
4 31 30 23 22 
4 12 16 30 19 
4 18 29 30 19 
4 19 30 23 26 

CELL_TYPES 36
9 
9 
9 
9 
9 
9 
9 
9 
9 
9 
9 
9 
9 
9 
9 
9 
9 
9 
9 
9 
9 
9 
9 
9 
9 
9 
9 
9 
9 
9 
9 
9 
9 
9 
9 
9 
POINT_DATA 32
SCALARS GMDS_ID int 1
LOOKUP_TABLE default
0 6 7 8 9 12 14 15 18 19 21 22 24 25 28 30 31 32 33 34 35 36 37 38 39 40 41 42 44 45 46 47 
SCALARS geom_link_dim int 1
LOOKUP_TABLE default
1 1 1 1 1 1 1 1 1 1 1 1 1 1 1 1 1 1 1 1 1 1 1 1 1 1 1 1 1 1 1 1 
SCALARS geom_link_id int 1
LOOKUP_TABLE default
22 3 8 32 30 14 16 18 17 15 27 6 19 20 13 24 25 23 28 12 11 2 21 10 9 5 1 4 7 31 26 29 


CELL_DATA 36
SCALARS GMDS_ID int 1
LOOKUP_TABLE default
1 5 15 21 25 33 34 35 40 45 48 49 50 53 55 57 58 59 62 65 66 68 69 71 73 74 78 81 86 87 88 90 92 95 97 98 

SCALARS geom_link_dim int 1
LOOKUP_TABLE default
3 3 3 4 3 3 3 3 3 4 3 3 3 3 3 4 3 3 3 3 3 3 3 4 3 3 3 3 3 4 3 3 3 3 3 4 

SCALARS geom_link_id int 1
LOOKUP_TABLE default
24 30 22 1 29 16 2 9 4 1 25 18 26 10 11 1 7 8 15 6 23 20 12 1 14 3 27 19 28 1 17 13 21 1 5 1 

