# vtk DataFile Version 3.0
Generated by GMDS VTK Writer

ASCII
DATASET UNSTRUCTURED_GRID
POINTS 32 float
5 0 5
10 0 5
5 5 10
5 5 -5
0 5 10
0 5 -5
5 0 10
5 0 -5
0 0 -5
0 0 10
5 5 5
10 5 5
5 -5 5
5 10 5
0 10 5
0 5 5
-5 5 5
-5 0 5
0 0 5
0 -5 5
10 0 0
5 0 0
5 5 0
10 5 0
5 -5 0
5 10 0
0 10 0
0 5 0
-5 5 0
-5 0 0
0 0 0
0 -5 0

CELLS 36 180
4 25 26 14 13 
4 22 25 13 10 
4 1 0 10 11 
4 10 0 6 2 
4 24 21 0 12 
4 20 21 22 23 
4 20 23 11 1 
4 23 22 10 11 
4 22 21 0 10 
4 3 7 21 22 
4 20 21 0 1 
4 6 9 4 2 
4 7 8 5 3 
4 10 15 4 2 
4 10 13 14 15 
4 15 18 9 4 
4 17 18 15 16 
4 0 18 9 6 
4 12 19 18 0 
4 0 18 15 10 
4 27 26 14 15 
4 3 5 27 22 
4 22 27 15 10 
4 22 25 26 27 
4 28 27 15 16 
4 30 29 17 18 
4 5 8 30 27 
4 27 30 18 15 
4 28 29 17 16 
4 29 30 27 28 
4 24 31 19 12 
4 31 30 18 19 
4 7 8 30 21 
4 21 30 18 0 
4 24 31 30 21 
4 21 30 27 22 

CELL_TYPES 36
9 
9 
9 
9 
9 
9 
9 
9 
9 
9 
9 
9 
9 
9 
9 
9 
9 
9 
9 
9 
9 
9 
9 
9 
9 
9 
9 
9 
9 
9 
9 
9 
9 
9 
9 
9 
POINT_DATA 32
SCALARS GMDS_ID int 1
LOOKUP_TABLE default
0 4 14 15 20 21 24 25 26 27 30 31 33 34 35 36 38 39 40 41 42 43 44 45 47 48 49 50 52 53 54 55 
SCALARS geom_link_dim_0 int 1
LOOKUP_TABLE default
0 0 0 0 0 0 0 0 0 0 0 0 0 0 0 0 0 0 0 0 0 0 0 0 0 0 0 0 0 0 0 0 
SCALARS geom_link_id_0 int 1
LOOKUP_TABLE default
0 0 0 0 0 0 0 0 0 0 0 0 0 0 0 0 0 0 0 0 0 0 0 0 0 0 0 0 0 0 0 0 


CELL_DATA 36
SCALARS GMDS_ID int 1
LOOKUP_TABLE default
0 4 12 13 15 24 25 31 35 39 42 44 46 57 58 69 72 78 79 80 82 83 84 85 91 94 95 96 98 99 101 103 104 105 106 107 

SCALARS geom_link_dim_0 int 1
LOOKUP_TABLE default
0 0 0 0 0 0 0 0 0 0 0 0 0 0 0 0 0 0 0 0 0 0 0 0 0 0 0 0 0 0 0 0 0 0 0 0 

SCALARS geom_link_id_0 int 1
LOOKUP_TABLE default
0 0 0 0 0 0 0 0 0 0 0 0 0 0 0 0 0 0 0 0 0 0 0 0 0 0 0 0 0 0 0 0 0 0 0 0 

