# vtk DataFile Version 3.0
Generated by GMDS VTK Writer

ASCII
DATASET UNSTRUCTURED_GRID
POINTS 57 float
-5 -5 -5
-5 10 -5
5 -5 0
10 -5 -5
-5 -5 10
-5 10 10
10 -5 -8.88178419700125e-16
5 10 -5
5 -5 -5
5 -5 10
5 10 10
10 5 -5
5 5 10
5 5 -5
-5 5 10
-5 5 -5
5 5 0
10 5 0
-5 -5 -8.88178419700125e-16
-5 5 0
5 10 0
-5 10 -8.88178419700125e-16
8.88178419700125e-16 -5 -5
0 5 -5
0 5 0
0 -5 0
0 5 10
8.88178419700125e-16 -5 10
8.88178419700125e-16 10 -5
0 10 0
8.88178419700125e-16 10 10
10 0 0
5 0 0
5 0 10
0 0 -5
0 0 0
5 0 -5
-5 -4.44089209850063e-16 -5
-5 0 0
10 -4.44089209850063e-16 -5
-5 -4.44089209850063e-16 10
0 0 10
10 0 5
5 0 5
5 5 5
10 5 5
10 -5 5
5 -5 5
-5 10 5
-5 5 5
0 5 5
0 10 5
5 10 5
-5 -5 5
0 -5 5
0 0 5
-5 0 5

CELLS 89 445
4 2 25 35 32 
4 5 14 49 48 
4 34 35 24 23 
4 46 47 43 42 
4 46 42 31 6 
4 47 43 32 2 
4 22 25 2 8 
4 9 33 43 47 
4 46 47 2 6 
4 0 18 25 22 
4 11 13 16 17 
4 42 43 44 45 
4 45 42 31 17 
4 3 8 2 6 
4 23 24 16 13 
4 22 25 35 34 
4 15 19 24 23 
4 45 44 16 17 
4 44 43 32 16 
4 7 13 16 20 
4 32 31 17 16 
4 1 15 19 21 
4 2 6 31 32 
4 12 33 43 44 
4 43 42 31 32 
4 1 15 23 28 
4 28 23 13 7 
4 19 21 29 24 
4 24 29 20 16 
4 1 21 29 28 
4 28 29 20 7 
4 28 23 24 29 
4 5 14 26 30 
4 30 26 12 10 
4 32 35 24 16 
4 2 8 36 32 
4 32 36 13 16 
4 8 22 34 36 
4 36 34 23 13 
4 34 35 32 36 
4 0 18 38 37 
4 37 38 19 15 
4 18 25 35 38 
4 38 35 24 19 
4 0 22 34 37 
4 37 34 23 15 
4 37 38 35 34 
4 3 8 36 39 
4 39 36 13 11 
4 3 6 31 39 
4 39 31 17 11 
4 39 36 32 31 
4 4 27 41 40 
4 40 41 26 14 
4 9 27 41 33 
4 33 41 26 12 
4 14 26 50 49 
4 49 50 24 19 
4 26 30 51 50 
4 50 51 29 24 
4 5 30 51 48 
4 48 49 50 51 
4 12 26 50 44 
4 44 50 24 16 
4 10 12 44 52 
4 52 44 16 20 
4 10 30 51 52 
4 52 51 29 20 
4 51 50 44 52 
4 4 27 54 53 
4 53 54 25 18 
4 27 41 55 54 
4 54 55 35 25 
4 40 41 55 56 
4 56 55 35 38 
4 4 40 56 53 
4 53 56 38 18 
4 53 54 55 56 
4 26 41 55 50 
4 50 55 35 24 
4 14 40 56 49 
4 49 56 38 19 
4 56 55 50 49 
4 9 27 54 47 
4 47 54 25 2 
4 33 41 55 43 
4 43 55 35 32 
4 47 54 55 43 
4 43 55 50 44 

CELL_TYPES 89
9 
9 
9 
9 
9 
9 
9 
9 
9 
9 
9 
9 
9 
9 
9 
9 
9 
9 
9 
9 
9 
9 
9 
9 
9 
9 
9 
9 
9 
9 
9 
9 
9 
9 
9 
9 
9 
9 
9 
9 
9 
9 
9 
9 
9 
9 
9 
9 
9 
9 
9 
9 
9 
9 
9 
9 
9 
9 
9 
9 
9 
9 
9 
9 
9 
9 
9 
9 
9 
9 
9 
9 
9 
9 
9 
9 
9 
9 
9 
9 
9 
9 
9 
9 
9 
9 
9 
9 
9 
POINT_DATA 57
SCALARS GMDS_ID int 1
LOOKUP_TABLE default
0 1 2 3 4 5 6 8 9 10 11 12 14 15 16 17 18 19 20 21 22 23 24 25 26 27 28 29 30 31 32 33 34 35 37 38 39 40 41 42 43 44 45 46 47 48 49 50 51 52 53 54 55 56 57 58 59 
SCALARS geom_link_dim_0 int 1
LOOKUP_TABLE default
0 0 0 0 0 0 0 0 0 0 0 0 0 0 0 0 0 0 0 0 0 0 0 0 0 0 0 0 0 0 0 0 0 0 0 0 0 0 0 0 0 0 0 0 0 0 0 0 0 0 0 0 0 0 0 0 0 
SCALARS geom_link_id_0 int 1
LOOKUP_TABLE default
0 0 0 0 0 0 0 0 0 0 0 0 0 0 0 0 0 0 0 0 0 0 0 0 0 0 0 0 0 0 0 0 0 0 0 0 0 0 0 0 0 0 0 0 0 0 0 0 0 0 0 0 0 0 0 0 0 


CELL_DATA 89
SCALARS GMDS_ID int 1
LOOKUP_TABLE default
1 2 3 4 6 8 9 10 12 13 14 16 17 18 19 20 22 26 30 32 35 36 38 40 41 45 46 47 48 49 50 51 52 53 57 58 59 60 61 62 63 64 65 66 67 68 69 70 71 72 73 74 79 80 82 83 86 87 88 89 90 92 93 94 95 96 97 98 99 100 101 102 103 104 105 106 107 108 109 110 111 112 113 114 115 116 117 118 119 

SCALARS geom_link_dim_0 int 1
LOOKUP_TABLE default
0 0 0 0 0 0 0 0 0 0 0 0 0 0 0 0 0 0 0 0 0 0 0 0 0 0 0 0 0 0 0 0 0 0 0 0 0 0 0 0 0 0 0 0 0 0 0 0 0 0 0 0 0 0 0 0 0 0 0 0 0 0 0 0 0 0 0 0 0 0 0 0 0 0 0 0 0 0 0 0 0 0 0 0 0 0 0 0 0 

SCALARS geom_link_id_0 int 1
LOOKUP_TABLE default
0 0 0 0 0 0 0 0 0 0 0 0 0 0 0 0 0 0 0 0 0 0 0 0 0 0 0 0 0 0 0 0 0 0 0 0 0 0 0 0 0 0 0 0 0 0 0 0 0 0 0 0 0 0 0 0 0 0 0 0 0 0 0 0 0 0 0 0 0 0 0 0 0 0 0 0 0 0 0 0 0 0 0 0 0 0 0 0 0 

