# vtk DataFile Version 3.0
Generated by GMDS VTK Writer

ASCII
DATASET UNSTRUCTURED_GRID
POINTS 36 float
-5 -5 -5
-5 -8.88178419700125e-16 -5
-5 -5 -8.88178419700125e-16
10 0 0
-5 0 0
10 0 5
-5 0 5
10 5 0
-5 5 0
-5 5 5
10 5 5
0 10 0
0 5 0
0 5 -5
0 -5 0
0 0 0
0 0 5
0 -5 5
-8.88178419700125e-16 -5 -5
0 0 -5
0 0 10
0 10 5
0 5 5
0 5 10
5 10 0
5 5 0
5 5 -5
5 -5 0
5 0 0
5 0 5
5 -5 5
5 0 -5
5 0 10
5 10 5
5 5 5
5 5 10

CELLS 42 210
4 15 19 31 28 
4 2 4 15 14 
4 27 28 29 30 
4 14 17 30 27 
4 0 1 4 2 
4 16 17 30 29 
4 28 29 5 3 
4 15 16 29 28 
4 14 15 28 27 
4 8 9 6 4 
4 12 13 26 25 
4 7 10 5 3 
4 11 12 25 24 
4 4 6 16 15 
4 14 15 16 17 
4 0 1 19 18 
4 1 4 15 19 
4 0 2 14 18 
4 18 19 15 14 
4 4 8 12 15 
4 13 12 15 19 
4 8 9 22 12 
4 11 21 22 12 
4 6 9 22 16 
4 12 22 16 15 
4 23 22 16 20 
4 16 20 32 29 
4 12 15 28 25 
4 25 28 3 7 
4 13 19 31 26 
4 26 25 28 31 
4 11 21 33 24 
4 21 22 34 33 
4 12 22 34 25 
4 25 34 10 7 
4 24 33 34 25 
4 16 22 34 29 
4 29 34 10 5 
4 25 34 29 28 
4 22 23 35 34 
4 20 23 35 32 
4 35 34 29 32 

CELL_TYPES 42
9 
9 
9 
9 
9 
9 
9 
9 
9 
9 
9 
9 
9 
9 
9 
9 
9 
9 
9 
9 
9 
9 
9 
9 
9 
9 
9 
9 
9 
9 
9 
9 
9 
9 
9 
9 
9 
9 
9 
9 
9 
9 
POINT_DATA 36
SCALARS GMDS_ID int 1
LOOKUP_TABLE default
0 2 4 5 6 8 9 10 11 12 13 14 15 16 17 18 19 20 21 22 23 25 26 27 28 29 30 31 32 33 34 35 36 37 38 39 
SCALARS geom_link_dim int 1
LOOKUP_TABLE default
0 0 0 1 1 1 1 1 1 1 1 1 1 1 1 1 1 1 0 1 1 1 1 1 1 1 1 1 1 1 1 1 1 1 1 1 
SCALARS geom_link_id int 1
LOOKUP_TABLE default
-1 -1 -1 29 11 30 13 21 5 6 22 4 1 18 28 12 14 27 -1 19 20 3 2 16 9 10 17 31 26 23 32 25 24 7 8 15 


CELL_DATA 42
SCALARS GMDS_ID int 1
LOOKUP_TABLE default
0 1 2 3 4 5 6 7 9 10 11 12 13 14 16 17 18 19 20 25 26 27 28 29 30 31 32 33 34 35 36 37 38 39 40 41 42 43 44 45 46 47 

SCALARS geom_link_dim int 1
LOOKUP_TABLE default
3 0 3 3 0 3 3 0 3 3 3 3 3 3 3 0 0 0 0 3 3 3 3 3 0 3 3 0 3 3 3 3 3 0 3 3 0 3 0 3 3 3 

SCALARS geom_link_id int 1
LOOKUP_TABLE default
1 0 2 29 0 6 22 0 5 18 12 23 14 10 24 0 0 0 0 27 3 19 7 9 0 16 30 0 21 26 17 8 13 0 11 28 0 20 0 4 25 15 

