# vtk DataFile Version 3.0
Generated by GMDS VTK Writer

ASCII
DATASET UNSTRUCTURED_GRID
POINTS 48 float
-5 -5 -5
-5 10 -5
10 10 -5
10 -5 -5
-5 -5 10
-5 10 10
10 10 10
10 -5 10
-5 -8.88178419700125e-16 -5
-5 -8.88178419700125e-16 10
10 -8.88178419700125e-16 10
10 -8.88178419700125e-16 -5
-5 -5 -8.88178419700125e-16
10 -5 -8.88178419700125e-16
10 0 0
-5 0 0
10 10 -8.88178419700125e-16
-5 10 -8.88178419700125e-16
-8.88178419700125e-16 -5 -5
0 0 -5
-8.88178419700125e-16 0 0
0 -5 0
0 0 10
-8.88178419700125e-16 -5 10
-8.88178419700125e-16 10 -5
0 10 0
-8.88178419700125e-16 10 10
-5 5 -5
-5 5 0
-4.44089209850063e-16 5 0
0 5 -5
10 5 0
10 5 -5
-5 5 10
0 5 10
10 5 10
0 -5 5
-4.44089209850063e-16 0 5
10 0 5
10 -5 5
10 5 5
-2.22044604925031e-16 5 5
-5 -5 5
-5 0 5
10 10 5
0 10 5
-5 5 5
-5 10 5

CELLS 75 375
4 3 11 14 13 
4 0 12 21 18 
4 2 16 31 32 
4 21 20 14 13 
4 31 29 20 14 
4 12 15 20 21 
4 19 20 14 11 
4 16 25 29 31 
4 27 28 29 30 
4 8 15 20 19 
4 18 19 11 3 
4 27 30 19 8 
4 1 24 30 27 
4 0 8 19 18 
4 30 29 20 19 
4 24 25 29 30 
4 0 8 15 12 
4 28 29 20 15 
4 20 29 41 37 
4 41 40 35 34 
4 17 25 29 28 
4 27 28 15 8 
4 29 31 40 41 
4 36 37 38 39 
4 1 17 28 27 
4 18 21 13 3 
4 18 19 20 21 
4 4 9 22 23 
4 23 22 10 7 
4 39 36 23 7 
4 13 21 36 39 
4 39 38 10 7 
4 13 14 38 39 
4 1 17 25 24 
4 24 25 16 2 
4 38 37 22 10 
4 14 20 37 38 
4 37 36 23 22 
4 20 21 36 37 
4 32 31 14 11 
4 2 24 30 32 
4 32 30 19 11 
4 30 29 31 32 
4 5 26 34 33 
4 33 34 22 9 
4 6 26 34 35 
4 35 34 22 10 
4 37 41 34 22 
4 14 31 40 38 
4 38 40 35 10 
4 40 41 37 38 
4 12 15 43 42 
4 42 43 9 4 
4 15 20 37 43 
4 43 37 22 9 
4 12 21 36 42 
4 42 36 23 4 
4 42 43 37 36 
4 16 25 45 44 
4 44 45 26 6 
4 25 29 41 45 
4 45 41 34 26 
4 16 31 40 44 
4 44 40 35 6 
4 44 45 41 40 
4 28 29 41 46 
4 46 41 34 33 
4 15 28 46 43 
4 43 46 33 9 
4 46 41 37 43 
4 17 25 45 47 
4 47 45 26 5 
4 17 28 46 47 
4 47 46 33 5 
4 47 45 41 46 

CELL_TYPES 75
9 
9 
9 
9 
9 
9 
9 
9 
9 
9 
9 
9 
9 
9 
9 
9 
9 
9 
9 
9 
9 
9 
9 
9 
9 
9 
9 
9 
9 
9 
9 
9 
9 
9 
9 
9 
9 
9 
9 
9 
9 
9 
9 
9 
9 
9 
9 
9 
9 
9 
9 
9 
9 
9 
9 
9 
9 
9 
9 
9 
9 
9 
9 
9 
9 
9 
9 
9 
9 
9 
9 
9 
9 
9 
9 
POINT_DATA 48
SCALARS GMDS_ID int 1
LOOKUP_TABLE default
0 1 2 3 4 5 6 7 8 9 10 11 12 13 14 15 16 17 18 19 20 21 22 23 24 25 26 27 28 29 30 31 32 33 34 35 36 37 38 39 40 41 42 43 44 45 46 47 
SCALARS geom_link_dim_0 int 1
LOOKUP_TABLE default
0 0 0 0 0 0 0 0 0 0 0 0 0 0 0 0 0 0 0 0 0 0 0 0 0 0 0 0 0 0 0 0 0 0 0 0 0 0 0 0 0 0 0 0 0 0 0 0 
SCALARS geom_link_id_0 int 1
LOOKUP_TABLE default
0 0 0 0 0 0 0 0 0 0 0 0 0 0 0 0 0 0 0 0 0 0 0 0 0 0 0 0 0 0 0 0 0 0 0 0 0 0 0 0 0 0 0 0 0 0 0 0 


CELL_DATA 75
SCALARS GMDS_ID int 1
LOOKUP_TABLE default
1 2 3 4 5 6 7 8 9 10 11 12 13 14 15 16 17 19 20 21 22 23 24 25 26 27 28 31 32 36 37 38 39 40 41 42 43 44 47 48 49 50 51 56 57 61 62 64 65 66 67 68 69 70 71 72 73 74 75 76 77 78 79 80 81 82 83 84 85 86 87 88 89 90 91 

SCALARS geom_link_dim_0 int 1
LOOKUP_TABLE default
0 0 0 0 0 0 0 0 0 0 0 0 0 0 0 0 0 0 0 0 0 0 0 0 0 0 0 0 0 0 0 0 0 0 0 0 0 0 0 0 0 0 0 0 0 0 0 0 0 0 0 0 0 0 0 0 0 0 0 0 0 0 0 0 0 0 0 0 0 0 0 0 0 0 0 

SCALARS geom_link_id_0 int 1
LOOKUP_TABLE default
0 0 0 0 0 0 0 0 0 0 0 0 0 0 0 0 0 0 0 0 0 0 0 0 0 0 0 0 0 0 0 0 0 0 0 0 0 0 0 0 0 0 0 0 0 0 0 0 0 0 0 0 0 0 0 0 0 0 0 0 0 0 0 0 0 0 0 0 0 0 0 0 0 0 0 

