# vtk DataFile Version 3.0
Generated by GMDS VTK Writer

ASCII
DATASET UNSTRUCTURED_GRID
POINTS 30 float
-5 -5 -5
-5 10 -5
10 10 -5
10 -5 -5
-5 -5 10
-5 10 10
8.88178419700125e-16 10 -5
8.88178419700125e-16 -5 -5
5 10 -5
5 -5 -5
5 -5 10
5 10 10
10 10 -8.88178419700125e-16
10 -5 -8.88178419700125e-16
5 -5 0
5 10 0
-5 -5 -8.88178419700125e-16
-5 10 -8.88178419700125e-16
10 10 5
10 -5 5
5 -5 5
5 10 5
-5 -5 5
-5 10 5
0 10 0
0 -5 0
0 10 5
0 -5 5
8.88178419700125e-16 10 10
8.88178419700125e-16 -5 10

CELLS 38 190
4 24 26 21 15 
4 12 15 21 18 
4 3 9 14 13 
4 20 21 11 10 
4 17 23 26 24 
4 2 3 13 12 
4 2 3 9 8 
4 14 15 21 20 
4 7 6 8 9 
4 6 24 15 8 
4 13 14 20 19 
4 1 17 24 6 
4 12 13 19 18 
4 8 9 14 15 
4 7 6 24 25 
4 2 8 15 12 
4 7 25 14 9 
4 12 13 14 15 
4 0 16 25 7 
4 0 1 17 16 
4 25 24 15 14 
4 16 17 24 25 
4 0 1 6 7 
4 18 19 20 21 
4 16 17 23 22 
4 22 23 5 4 
4 22 23 26 27 
4 27 26 21 20 
4 16 22 27 25 
4 25 27 20 14 
4 25 24 26 27 
4 5 23 26 28 
4 28 26 21 11 
4 4 5 28 29 
4 29 28 11 10 
4 4 22 27 29 
4 29 27 20 10 
4 27 26 28 29 

CELL_TYPES 38
9 
9 
9 
9 
9 
9 
9 
9 
9 
9 
9 
9 
9 
9 
9 
9 
9 
9 
9 
9 
9 
9 
9 
9 
9 
9 
9 
9 
9 
9 
9 
9 
9 
9 
9 
9 
9 
9 
POINT_DATA 30
SCALARS GMDS_ID int 1
LOOKUP_TABLE default
0 1 2 3 4 5 6 7 8 9 10 11 12 13 14 15 16 17 18 19 20 21 22 23 24 25 26 27 28 29 
SCALARS geom_link_dim int 1
LOOKUP_TABLE default
0 0 0 0 0 0 0 0 0 0 0 0 0 0 1 1 0 0 0 0 1 1 0 0 1 1 1 1 0 0 
SCALARS geom_link_id int 1
LOOKUP_TABLE default
-1 -1 -1 -1 -1 -1 -1 -1 -1 -1 -1 -1 -1 -1 31 9 -1 -1 -1 -1 32 7 -1 -1 4 28 3 27 -1 -1 


CELL_DATA 38
SCALARS GMDS_ID int 1
LOOKUP_TABLE default
0 1 2 3 4 5 6 8 9 10 12 13 14 15 16 17 18 19 21 22 23 25 27 28 31 32 36 37 38 39 40 41 42 43 44 45 46 47 

SCALARS geom_link_dim int 1
LOOKUP_TABLE default
0 0 0 0 0 0 0 0 0 0 0 0 0 0 0 0 0 0 0 0 0 0 0 0 0 0 0 0 0 0 0 0 0 0 0 0 0 0 

SCALARS geom_link_id int 1
LOOKUP_TABLE default
-1 0 0 0 -1 0 0 0 -1 -1 0 -1 0 0 -1 0 -1 0 -1 0 -1 -1 -1 0 0 0 -1 -1 -1 -1 -1 -1 -1 -1 -1 -1 -1 -1 

