# vtk DataFile Version 3.0
Generated by GMDS VTK Writer

ASCII
DATASET UNSTRUCTURED_GRID
POINTS 44 float
-5 -5 -5
-5 10 -5
10 10 -5
10 -5 -5
-5 -5 10
-5 10 10
8.88178419700125e-16 10 -5
8.88178419700125e-16 -5 -5
5 10 -5
5 -5 -5
5 -5 10
10 10 -8.88178419700125e-16
10 -5 -8.88178419700125e-16
5 -5 0
5 10 0
-5 -5 -8.88178419700125e-16
-5 10 -8.88178419700125e-16
10 10 5
10 -5 5
5 -5 5
5 10 5
-5 -5 5
-5 10 5
0 10 0
0 -5 0
0 10 5
0 -5 5
8.88178419700125e-16 10 10
8.88178419700125e-16 -5 10
10 5 -5
5 5 -5
5 5 0
10 5 0
5 5 5
10 5 5
0 5 -5
0 5 0
-5 5 -5
-5 5 0
-5 5 5
0 5 5
-5 5 10
0 5 10
5 5 10

CELLS 65 325
4 23 25 20 14 
4 11 14 20 17 
4 3 9 13 12 
4 16 22 25 23 
4 13 19 33 31 
4 6 23 14 8 
4 29 30 31 32 
4 12 13 19 18 
4 1 16 23 6 
4 2 8 14 11 
4 7 24 13 9 
4 29 32 11 2 
4 0 15 24 7 
4 3 12 32 29 
4 32 31 14 11 
4 12 13 31 32 
4 30 31 14 8 
4 9 13 31 30 
4 29 30 8 2 
4 3 9 30 29 
4 15 21 26 24 
4 24 26 19 13 
4 5 22 25 27 
4 4 21 26 28 
4 28 26 19 10 
4 31 33 20 14 
4 18 19 33 34 
4 34 33 20 17 
4 12 18 34 32 
4 32 34 17 11 
4 32 31 33 34 
4 7 24 36 35 
4 35 36 23 6 
4 13 24 36 31 
4 31 36 23 14 
4 7 9 30 35 
4 35 30 8 6 
4 35 36 31 30 
4 0 15 38 37 
4 37 38 16 1 
4 15 24 36 38 
4 38 36 23 16 
4 0 7 35 37 
4 37 35 6 1 
4 37 38 36 35 
4 15 21 39 38 
4 38 39 22 16 
4 21 26 40 39 
4 39 40 25 22 
4 24 26 40 36 
4 36 40 25 23 
4 38 39 40 36 
4 19 26 40 33 
4 33 40 25 20 
4 36 40 33 31 
4 4 21 39 41 
4 41 39 22 5 
4 26 28 42 40 
4 40 42 27 25 
4 4 28 42 41 
4 41 42 27 5 
4 41 39 40 42 
4 10 19 33 43 
4 10 28 42 43 
4 42 40 33 43 

CELL_TYPES 65
9 
9 
9 
9 
9 
9 
9 
9 
9 
9 
9 
9 
9 
9 
9 
9 
9 
9 
9 
9 
9 
9 
9 
9 
9 
9 
9 
9 
9 
9 
9 
9 
9 
9 
9 
9 
9 
9 
9 
9 
9 
9 
9 
9 
9 
9 
9 
9 
9 
9 
9 
9 
9 
9 
9 
9 
9 
9 
9 
9 
9 
9 
9 
9 
9 
POINT_DATA 44
SCALARS GMDS_ID int 1
LOOKUP_TABLE default
0 1 2 3 4 5 6 7 8 9 10 12 13 14 15 16 17 18 19 20 21 22 23 24 25 26 27 28 29 30 31 32 33 34 35 36 37 38 39 40 41 42 43 44 
SCALARS geom_link_dim int 1
LOOKUP_TABLE default
0 0 0 0 0 0 0 0 0 0 0 0 0 1 1 0 0 0 0 1 1 0 0 1 1 1 1 0 0 0 1 0 1 1 1 1 0 0 1 1 1 0 1 1 
SCALARS geom_link_id int 1
LOOKUP_TABLE default
-1 -1 -1 -1 -1 -1 -1 -1 -1 -1 -1 -1 -1 31 9 -1 -1 -1 -1 32 7 -1 -1 4 28 3 27 -1 -1 -1 17 0 21 8 22 18 0 -1 5 6 2 -1 16 15 


CELL_DATA 65
SCALARS GMDS_ID int 1
LOOKUP_TABLE default
0 1 2 4 7 10 11 12 13 17 18 20 21 24 26 29 30 33 34 35 38 39 41 45 46 48 49 50 51 52 53 54 55 56 57 58 59 60 61 62 63 64 65 66 67 68 69 70 71 72 73 74 75 76 77 78 79 80 81 82 83 84 85 87 89 

SCALARS geom_link_dim int 1
LOOKUP_TABLE default
0 0 0 0 0 0 0 0 0 0 0 0 0 0 0 0 0 0 0 0 0 0 0 0 0 0 0 0 0 0 0 0 0 0 0 0 0 0 0 0 0 0 0 0 0 0 0 0 0 0 0 0 0 0 0 0 0 0 0 0 0 0 0 0 0 

SCALARS geom_link_id int 1
LOOKUP_TABLE default
0 0 0 0 0 0 0 0 0 0 0 0 0 0 0 0 0 0 0 0 0 0 0 0 0 0 0 0 0 0 0 0 0 0 0 0 0 0 0 0 0 0 0 0 0 0 0 0 0 0 0 0 0 0 0 0 0 0 0 0 0 0 0 0 0 

