# vtk DataFile Version 3.0
Generated by GMDS VTK Writer

ASCII
DATASET UNSTRUCTURED_GRID
POINTS 34 float
0 0 10
0 0 0
0 5 5
0 10 0
0 0 5
0 5 -5
0 5 0
0 -5 5
5 -5 0
5 10 0
-5 -5 -8.88178419700125e-16
0 0 -5
5 -5 5
5 10 5
-5 -5 5
0 -5 0
5 0 -5
5 0 0
10 0 0
10 0 5
5 0 5
5 0 10
-5 0 0
-5 0 5
0 10 5
5 5 -5
5 5 0
10 5 0
10 5 5
5 5 5
5 5 10
0 5 10
-5 5 0
-5 5 5

CELLS 40 200
4 10 14 7 15 
4 1 4 20 17 
4 6 2 29 26 
4 1 4 2 6 
4 20 21 30 29 
4 15 1 17 8 
4 19 20 29 28 
4 11 1 6 5 
4 5 6 26 25 
4 15 7 12 8 
4 23 33 2 4 
4 4 2 29 20 
4 4 0 31 2 
4 14 23 4 7 
4 15 7 4 1 
4 0 31 30 21 
4 7 4 20 12 
4 17 18 27 26 
4 16 17 26 25 
4 11 5 25 16 
4 32 33 2 6 
4 22 23 4 1 
4 3 24 13 9 
4 11 1 17 16 
4 6 2 24 3 
4 3 6 26 9 
4 24 2 29 13 
4 8 12 20 17 
4 18 17 20 19 
4 2 31 30 29 
4 10 14 23 22 
4 1 6 26 17 
4 22 32 6 1 
4 17 20 29 26 
4 26 29 13 9 
4 18 19 28 27 
4 10 22 1 15 
4 27 26 29 28 
4 4 0 21 20 
4 22 23 33 32 

CELL_TYPES 40
9 
9 
9 
9 
9 
9 
9 
9 
9 
9 
9 
9 
9 
9 
9 
9 
9 
9 
9 
9 
9 
9 
9 
9 
9 
9 
9 
9 
9 
9 
9 
9 
9 
9 
9 
9 
9 
9 
9 
9 
POINT_DATA 34
SCALARS GMDS_ID int 1
LOOKUP_TABLE default
2 3 4 8 9 10 12 13 14 15 16 18 20 21 22 24 25 26 27 28 29 30 33 34 36 37 38 39 40 41 42 43 45 46 
SCALARS geom_link_dim int 1
LOOKUP_TABLE default
1 1 1 1 1 1 1 1 1 1 0 1 1 1 0 1 1 1 1 1 1 1 1 1 1 1 1 1 1 1 1 1 1 1 
SCALARS geom_link_id int 1
LOOKUP_TABLE default
20 12 2 4 14 18 1 27 31 9 -1 19 32 7 -1 28 25 26 29 30 23 24 11 13 3 17 10 21 22 8 15 16 5 6 


CELL_DATA 40
SCALARS GMDS_ID int 1
LOOKUP_TABLE default
0 2 5 7 10 11 13 14 15 16 17 19 20 21 22 24 25 26 31 32 35 37 38 40 42 44 46 47 51 52 59 64 66 70 71 72 73 74 80 82 

SCALARS geom_link_dim int 1
LOOKUP_TABLE default
0 0 0 0 0 0 0 0 0 0 0 0 0 0 0 0 0 0 0 0 0 0 0 0 0 0 0 0 0 0 0 0 0 0 0 0 0 0 0 0 

SCALARS geom_link_id int 1
LOOKUP_TABLE default
0 0 0 0 0 0 0 0 0 0 0 0 0 0 0 0 0 0 0 0 0 0 0 0 0 0 0 0 0 0 0 0 0 0 0 0 0 0 0 0 

