# vtk DataFile Version 3.0
Generated by GMDS VTK Writer

ASCII
DATASET UNSTRUCTURED_GRID
POINTS 39 float
5 -5 0
5 10 0
10 10 -5
10 -5 -5
0 0 5
5 0 5
5 0 10
0 0 10
8.88178419700125e-16 10 -5
8.88178419700125e-16 -5 -5
8.88178419700125e-16 -5 10
8.88178419700125e-16 10 10
10 10 -8.88178419700125e-16
10 -5 -8.88178419700125e-16
0 -5 0
0 10 0
-5 -5 -8.88178419700125e-16
-5 10 -8.88178419700125e-16
5 -5 10
5 10 10
5 10 -5
5 -5 -5
5 10 5
5 -5 5
0 -5 5
0 10 5
10 10 5
10 -5 5
-5 -5 5
-5 10 5
5 -8.88178419700125e-16 0
0 0 0
10 -8.88178419700125e-16 -5
10 0 0
5 0 -5
0 0 -5
10 0 5
-5 0 0
-5 0 5

CELLS 54 270
4 1 15 25 22 
4 32 33 12 2 
4 3 13 33 32 
4 30 31 4 5 
4 30 5 22 1 
4 23 24 10 18 
4 7 4 25 11 
4 0 23 5 30 
4 6 5 22 19 
4 31 4 25 15 
4 0 14 24 23 
4 14 24 4 31 
4 30 31 15 1 
4 0 14 31 30 
4 5 4 7 6 
4 3 13 0 21 
4 21 0 14 9 
4 2 12 1 20 
4 20 1 15 8 
4 22 25 11 19 
4 18 23 5 6 
4 0 13 27 23 
4 7 6 19 11 
4 1 12 26 22 
4 10 18 6 7 
4 14 16 28 24 
4 10 24 4 7 
4 5 4 25 22 
4 15 17 29 25 
4 23 24 4 5 
4 0 13 33 30 
4 30 33 12 1 
4 0 21 34 30 
4 30 34 20 1 
4 3 21 34 32 
4 32 34 20 2 
4 32 33 30 34 
4 9 14 31 35 
4 35 31 15 8 
4 9 21 34 35 
4 35 34 20 8 
4 34 30 31 35 
4 13 27 36 33 
4 33 36 26 12 
4 23 27 36 5 
4 5 36 26 22 
4 30 33 36 5 
4 14 16 37 31 
4 31 37 17 15 
4 16 28 38 37 
4 37 38 29 17 
4 24 28 38 4 
4 4 38 29 25 
4 31 37 38 4 

CELL_TYPES 54
9 
9 
9 
9 
9 
9 
9 
9 
9 
9 
9 
9 
9 
9 
9 
9 
9 
9 
9 
9 
9 
9 
9 
9 
9 
9 
9 
9 
9 
9 
9 
9 
9 
9 
9 
9 
9 
9 
9 
9 
9 
9 
9 
9 
9 
9 
9 
9 
9 
9 
9 
9 
9 
9 
POINT_DATA 39
SCALARS GMDS_ID int 1
LOOKUP_TABLE default
0 1 2 3 4 5 6 7 8 9 10 11 12 13 14 15 16 17 18 19 20 21 22 23 24 25 26 27 28 29 30 31 32 33 34 35 36 37 38 
SCALARS geom_link_dim int 1
LOOKUP_TABLE default
1 1 0 0 1 1 1 1 0 0 0 0 0 0 1 1 0 0 0 0 0 0 1 1 1 1 0 0 0 0 0 1 0 1 1 1 1 1 1 
SCALARS geom_link_id int 1
LOOKUP_TABLE default
31 9 -1 -1 14 23 24 20 -1 -1 -1 -1 -1 -1 28 4 -1 -1 -1 -1 -1 -1 7 32 27 3 -1 -1 -1 -1 -1 12 -1 29 25 19 30 11 13 


CELL_DATA 54
SCALARS GMDS_ID int 1
LOOKUP_TABLE default
0 4 7 8 9 10 11 12 14 16 17 20 21 23 25 27 28 29 30 32 35 36 37 38 39 41 42 44 45 46 48 49 50 51 52 53 54 55 56 57 58 59 60 61 62 63 64 65 66 67 68 69 70 71 

SCALARS geom_link_dim int 1
LOOKUP_TABLE default
0 0 0 0 0 0 0 0 0 0 0 0 0 0 0 0 0 0 0 0 0 0 0 0 0 0 0 0 0 0 0 0 0 0 0 0 0 0 0 0 0 0 0 0 0 0 0 0 0 0 0 0 0 0 

SCALARS geom_link_id int 1
LOOKUP_TABLE default
0 -1 -1 -1 -1 0 -1 -1 -1 -1 0 -1 -1 -1 -1 0 0 0 0 0 -1 0 -1 0 -1 0 -1 -1 0 -1 -1 -1 -1 -1 -1 -1 -1 -1 -1 -1 -1 -1 -1 -1 -1 -1 -1 -1 -1 -1 -1 -1 -1 -1 

