# vtk DataFile Version 3.0
Generated by GMDS VTK Writer

ASCII
DATASET UNSTRUCTURED_GRID
POINTS 46 float
5 0 5
10 -5 -5
10 0 5
-5 10 10
10 -4.44089209850063e-16 -5
-5 5 -5
-5 5 10
5 -5 -5
5 -5 10
5 5 10
5 5 -5
5 10 10
0 -5 -5
0 -5 10
0 5 10
0 5 -5
0 10 10
5 0 10
5 0 -5
0 0 -5
0 0 10
-5 -4.44089209850063e-16 -5
5 5 5
10 5 5
5 -5 5
5 10 5
0 10 5
0 5 5
-5 10 5
-5 5 5
-5 0 5
0 0 5
0 -5 5
10 0 0
5 0 0
5 5 0
10 5 0
10 -5 -4.44089209850063e-16
5 -5 0
5 10 0
0 10 0
0 5 0
-5 5 0
-5 0 0
0 0 0
0 -5 0

CELLS 62 310
4 39 40 26 25 
4 24 0 17 8 
4 35 39 25 22 
4 37 38 34 33 
4 2 0 22 23 
4 22 0 17 9 
4 1 4 33 37 
4 38 34 0 24 
4 7 18 34 38 
4 1 7 18 4 
4 1 7 38 37 
4 33 34 35 36 
4 33 36 23 2 
4 9 11 16 14 
4 14 16 3 6 
4 36 35 22 23 
4 35 34 0 22 
4 10 18 34 35 
4 21 19 15 5 
4 33 34 0 2 
4 8 13 20 17 
4 17 20 14 9 
4 7 12 19 18 
4 18 19 15 10 
4 4 18 34 33 
4 22 25 11 9 
4 25 26 16 11 
4 27 26 16 14 
4 22 27 14 9 
4 22 25 26 27 
4 28 26 16 3 
4 28 29 6 3 
4 29 27 14 6 
4 27 26 28 29 
4 27 31 20 14 
4 30 31 27 29 
4 24 32 13 8 
4 32 31 20 13 
4 0 31 20 17 
4 24 32 31 0 
4 0 31 27 22 
4 41 40 26 27 
4 10 15 41 35 
4 35 41 27 22 
4 35 39 40 41 
4 5 15 41 42 
4 42 41 27 29 
4 19 21 43 44 
4 44 43 30 31 
4 15 19 44 41 
4 41 44 31 27 
4 5 21 43 42 
4 42 43 30 29 
4 43 44 41 42 
4 7 12 45 38 
4 38 45 32 24 
4 12 19 44 45 
4 45 44 31 32 
4 18 19 44 34 
4 34 44 31 0 
4 38 45 44 34 
4 34 44 41 35 

CELL_TYPES 62
9 
9 
9 
9 
9 
9 
9 
9 
9 
9 
9 
9 
9 
9 
9 
9 
9 
9 
9 
9 
9 
9 
9 
9 
9 
9 
9 
9 
9 
9 
9 
9 
9 
9 
9 
9 
9 
9 
9 
9 
9 
9 
9 
9 
9 
9 
9 
9 
9 
9 
9 
9 
9 
9 
9 
9 
9 
9 
9 
9 
9 
9 
POINT_DATA 46
SCALARS GMDS_ID int 1
LOOKUP_TABLE default
0 3 4 5 6 8 9 12 13 14 15 16 18 19 20 21 22 24 25 26 27 29 30 31 33 34 35 36 37 38 39 40 41 42 43 44 45 46 47 48 49 50 52 53 54 55 
SCALARS geom_link_dim_0 int 1
LOOKUP_TABLE default
0 0 0 0 0 0 0 0 0 0 0 0 0 0 0 0 0 0 0 0 0 0 0 0 0 0 0 0 0 0 0 0 0 0 0 0 0 0 0 0 0 0 0 0 0 0 
SCALARS geom_link_id_0 int 1
LOOKUP_TABLE default
0 0 0 0 0 0 0 0 0 0 0 0 0 0 0 0 0 0 0 0 0 0 0 0 0 0 0 0 0 0 0 0 0 0 0 0 0 0 0 0 0 0 0 0 0 0 


CELL_DATA 62
SCALARS GMDS_ID int 1
LOOKUP_TABLE default
0 2 4 7 12 13 14 15 16 21 23 24 25 29 30 31 35 39 41 42 43 44 45 46 47 51 53 55 57 58 60 62 64 65 69 72 74 76 78 79 80 82 83 84 85 90 91 93 94 95 96 97 98 99 100 101 102 103 104 105 106 107 

SCALARS geom_link_dim_0 int 1
LOOKUP_TABLE default
0 0 0 0 0 0 0 0 0 0 0 0 0 0 0 0 0 0 0 0 0 0 0 0 0 0 0 0 0 0 0 0 0 0 0 0 0 0 0 0 0 0 0 0 0 0 0 0 0 0 0 0 0 0 0 0 0 0 0 0 0 0 

SCALARS geom_link_id_0 int 1
LOOKUP_TABLE default
0 0 0 0 0 0 0 0 0 0 0 0 0 0 0 0 0 0 0 0 0 0 0 0 0 0 0 0 0 0 0 0 0 0 0 0 0 0 0 0 0 0 0 0 0 0 0 0 0 0 0 0 0 0 0 0 0 0 0 0 0 0 

