# vtk DataFile Version 3.0
Generated by GMDS VTK Writer

ASCII
DATASET UNSTRUCTURED_GRID
POINTS 32 float
10 -5 10
8.88178419700125e-16 -5 10
8.88178419700125e-16 10 10
10 5 10
0 5 10
0 5 -5
-5 5 10
-5 5 -5
5 5 -5
5 5 10
5 10 10
5 -5 10
0 0 -5
0 0 10
-5 -4.44089209850063e-16 10
-5 -4.44089209850063e-16 -5
10 -4.44089209850063e-16 10
5 0 10
5 0 -5
0 -5 0
0 0 0
-5 0 0
10 5 0
5 5 0
5 10 0
-5 5 0
0 5 0
0 10 0
10 -5 -8.88178419700125e-16
5 -5 0
5 0 0
10 0 0

CELLS 39 195
4 10 9 4 2 
4 14 13 4 6 
4 20 21 14 13 
4 12 15 21 20 
4 19 20 13 1 
4 15 12 5 7 
4 0 11 17 16 
4 16 17 9 3 
4 1 11 17 13 
4 13 17 9 4 
4 12 18 8 5 
4 22 23 9 3 
4 23 24 10 9 
4 5 7 25 26 
4 26 25 6 4 
4 27 26 4 2 
4 5 8 23 26 
4 26 23 9 4 
4 27 24 10 2 
4 24 23 26 27 
4 5 12 20 26 
4 26 20 13 4 
4 7 15 21 25 
4 25 21 14 6 
4 21 20 26 25 
4 28 29 11 0 
4 29 30 17 11 
4 31 30 17 16 
4 28 31 16 0 
4 28 29 30 31 
4 8 18 30 23 
4 23 30 17 9 
4 22 31 16 3 
4 31 30 23 22 
4 19 29 11 1 
4 12 18 30 20 
4 20 30 17 13 
4 19 29 30 20 
4 20 30 23 26 

CELL_TYPES 39
9 
9 
9 
9 
9 
9 
9 
9 
9 
9 
9 
9 
9 
9 
9 
9 
9 
9 
9 
9 
9 
9 
9 
9 
9 
9 
9 
9 
9 
9 
9 
9 
9 
9 
9 
9 
9 
9 
9 
POINT_DATA 32
SCALARS GMDS_ID int 1
LOOKUP_TABLE default
7 10 11 13 14 15 16 17 18 19 20 23 24 25 26 27 29 30 31 33 34 35 37 38 39 40 41 42 44 45 46 47 
SCALARS geom_link_dim int 1
LOOKUP_TABLE default
0 0 0 0 1 1 0 0 1 1 0 0 1 1 0 0 0 1 1 1 1 1 1 1 1 1 1 1 0 1 1 1 
SCALARS geom_link_id int 1
LOOKUP_TABLE default
-1 -1 -1 -1 16 18 -1 -1 17 15 -1 -1 19 20 -1 -1 -1 24 25 28 12 11 21 10 9 5 1 4 -1 31 26 29 


CELL_DATA 39
SCALARS GMDS_ID int 1
LOOKUP_TABLE default
7 12 24 31 32 36 40 41 47 48 50 54 56 60 61 63 69 70 72 73 74 75 76 77 78 80 82 84 86 87 88 89 91 92 94 95 96 97 98 

SCALARS geom_link_dim int 1
LOOKUP_TABLE default
0 0 0 0 0 0 0 0 0 0 0 0 0 0 0 0 0 0 0 0 0 0 0 0 0 0 0 0 0 0 0 0 0 0 0 0 0 0 0 

SCALARS geom_link_id int 1
LOOKUP_TABLE default
0 0 0 0 0 0 0 0 0 0 0 0 0 0 0 0 0 0 0 0 0 0 0 0 0 0 0 0 0 0 0 0 0 0 0 0 0 0 0 

