# vtk DataFile Version 3.0
Generated by GMDS VTK Writer

ASCII
DATASET UNSTRUCTURED_GRID
POINTS 16 float
-5 -5 -5
-5 10 -5
10 -5 -5
-5 -5 10
-5 10 10
10 -5 10
5 10 -5
5 -5 -5
5 -5 10
5 10 10
10 5 -5
10 5 10
5 5 10
5 5 -5
-5 5 10
-5 5 -5

CELLS 16 80
4 5 8 12 11 
4 2 5 11 10 
4 2 5 8 7 
4 7 8 3 0 
4 6 9 4 1 
4 7 8 12 13 
4 13 12 9 6 
4 2 7 13 10 
4 10 11 12 13 
4 3 8 12 14 
4 14 12 9 4 
4 0 3 14 15 
4 15 14 4 1 
4 0 7 13 15 
4 15 13 6 1 
4 13 12 14 15 

CELL_TYPES 16
9 
9 
9 
9 
9 
9 
9 
9 
9 
9 
9 
9 
9 
9 
9 
9 
POINT_DATA 16
SCALARS GMDS_ID int 1
LOOKUP_TABLE default
0 1 3 4 5 7 8 9 10 11 12 13 14 15 16 17 
SCALARS geom_link_dim_0 int 1
LOOKUP_TABLE default
0 0 0 0 0 0 0 0 0 0 0 0 0 0 0 0 
SCALARS geom_link_id_0 int 1
LOOKUP_TABLE default
0 0 0 0 0 0 0 0 0 0 0 0 0 0 0 0 


CELL_DATA 16
SCALARS GMDS_ID int 1
LOOKUP_TABLE default
2 5 8 9 13 15 16 17 19 20 21 22 23 24 25 26 

SCALARS geom_link_dim_0 int 1
LOOKUP_TABLE default
0 0 0 0 0 0 0 0 0 0 0 0 0 0 0 0 

SCALARS geom_link_id_0 int 1
LOOKUP_TABLE default
0 0 0 0 0 0 0 0 0 0 0 0 0 0 0 0 

