# vtk DataFile Version 3.0
Generated by GMDS VTK Writer

ASCII
DATASET UNSTRUCTURED_GRID
POINTS 40 float
5 0 5
10 0 5
-5 10 10
-5 5 -5
-5 5 10
5 -5 -5
5 5 10
5 5 -5
0 -5 -5
0 5 10
0 5 -5
0 10 10
5 0 10
5 0 -5
0 0 -5
0 0 10
-5 -4.44089209850063e-16 -5
5 5 5
10 5 5
5 -5 5
5 10 5
0 10 5
0 5 5
-5 10 5
-5 5 5
-5 0 5
0 0 5
0 -5 5
10 0 0
5 0 0
5 5 0
10 5 0
5 -5 0
5 10 0
0 10 0
0 5 0
-5 5 0
-5 0 0
0 0 0
0 -5 0

CELLS 50 250
4 33 34 21 20 
4 30 33 20 17 
4 1 0 17 18 
4 17 0 12 6 
4 32 29 0 19 
4 5 13 29 32 
4 28 29 30 31 
4 28 31 18 1 
4 9 11 2 4 
4 31 30 17 18 
4 30 29 0 17 
4 7 13 29 30 
4 16 14 10 3 
4 28 29 0 1 
4 12 15 9 6 
4 5 8 14 13 
4 13 14 10 7 
4 22 21 11 9 
4 17 22 9 6 
4 17 20 21 22 
4 23 21 11 2 
4 23 24 4 2 
4 24 22 9 4 
4 22 21 23 24 
4 22 26 15 9 
4 25 26 22 24 
4 0 26 15 12 
4 19 27 26 0 
4 0 26 22 17 
4 35 34 21 22 
4 7 10 35 30 
4 30 35 22 17 
4 30 33 34 35 
4 3 10 35 36 
4 36 35 22 24 
4 14 16 37 38 
4 38 37 25 26 
4 10 14 38 35 
4 35 38 26 22 
4 3 16 37 36 
4 36 37 25 24 
4 37 38 35 36 
4 5 8 39 32 
4 32 39 27 19 
4 8 14 38 39 
4 39 38 26 27 
4 13 14 38 29 
4 29 38 26 0 
4 32 39 38 29 
4 29 38 35 30 

CELL_TYPES 50
9 
9 
9 
9 
9 
9 
9 
9 
9 
9 
9 
9 
9 
9 
9 
9 
9 
9 
9 
9 
9 
9 
9 
9 
9 
9 
9 
9 
9 
9 
9 
9 
9 
9 
9 
9 
9 
9 
9 
9 
9 
9 
9 
9 
9 
9 
9 
9 
9 
9 
POINT_DATA 40
SCALARS GMDS_ID int 1
LOOKUP_TABLE default
0 4 5 8 9 12 14 15 18 20 21 22 24 25 26 27 29 30 31 33 34 35 36 37 38 39 40 41 42 43 44 45 47 48 49 50 52 53 54 55 
SCALARS geom_link_dim_0 int 1
LOOKUP_TABLE default
0 0 0 0 0 0 0 0 0 0 0 0 0 0 0 0 0 0 0 0 0 0 0 0 0 0 0 0 0 0 0 0 0 0 0 0 0 0 0 0 
SCALARS geom_link_id_0 int 1
LOOKUP_TABLE default
0 0 0 0 0 0 0 0 0 0 0 0 0 0 0 0 0 0 0 0 0 0 0 0 0 0 0 0 0 0 0 0 0 0 0 0 0 0 0 0 


CELL_DATA 50
SCALARS GMDS_ID int 1
LOOKUP_TABLE default
0 4 12 13 15 16 24 25 30 31 35 39 41 42 44 45 46 55 57 58 60 62 64 65 69 72 78 79 80 82 83 84 85 90 91 93 94 95 96 97 98 99 100 101 102 103 104 105 106 107 

SCALARS geom_link_dim_0 int 1
LOOKUP_TABLE default
0 0 0 0 0 0 0 0 0 0 0 0 0 0 0 0 0 0 0 0 0 0 0 0 0 0 0 0 0 0 0 0 0 0 0 0 0 0 0 0 0 0 0 0 0 0 0 0 0 0 

SCALARS geom_link_id_0 int 1
LOOKUP_TABLE default
0 0 0 0 0 0 0 0 0 0 0 0 0 0 0 0 0 0 0 0 0 0 0 0 0 0 0 0 0 0 0 0 0 0 0 0 0 0 0 0 0 0 0 0 0 0 0 0 0 0 

