# vtk DataFile Version 3.0
Generated by GMDS VTK Writer

ASCII
DATASET UNSTRUCTURED_GRID
POINTS 48 float
-5 -5 -5
-5 10 -5
10 10 -5
10 -5 -5
-5 -5 10
-5 10 10
10 10 10
10 -5 10
-5 -8.88178419700125e-16 -5
-5 -8.88178419700125e-16 10
10 -8.88178419700125e-16 10
10 -8.88178419700125e-16 -5
-5 -5 -8.88178419700125e-16
10 -5 -8.88178419700125e-16
10 0 0
-5 0 0
10 10 -8.88178419700125e-16
-5 10 -8.88178419700125e-16
-5 -5 5
10 -5 5
10 0 5
-5 0 5
10 10 5
-5 10 5
-5 5 -5
10 5 -5
10 5 0
-5 5 0
-5 5 5
10 5 5
-5 5 10
10 5 10
-8.88178419700125e-16 10 -5
0 10 0
-8.88178419700125e-16 5 0
0 5 -5
0 -5 0
-8.88178419700125e-16 0 0
-8.88178419700125e-16 0 5
0 -5 5
-8.88178419700125e-16 -5 -5
0 0 -5
0 0 10
-8.88178419700125e-16 -5 10
0 10 5
-8.88178419700125e-16 5 5
-8.88178419700125e-16 10 10
0 5 10

CELLS 75 375
4 1 17 27 24 
4 3 11 14 13 
4 12 15 21 18 
4 19 20 10 7 
4 12 15 37 36 
4 13 14 20 19 
4 32 33 34 35 
4 0 8 15 12 
4 25 26 14 11 
4 32 35 25 2 
4 2 16 26 25 
4 1 24 35 32 
4 35 34 26 25 
4 18 21 9 4 
4 24 27 34 35 
4 33 34 26 16 
4 17 27 34 33 
4 32 33 16 2 
4 1 17 33 32 
4 24 27 15 8 
4 17 23 28 27 
4 27 28 21 15 
4 16 22 29 26 
4 26 29 20 14 
4 5 23 28 30 
4 30 28 21 9 
4 6 22 29 31 
4 31 29 20 10 
4 36 37 14 13 
4 15 21 38 37 
4 37 38 20 14 
4 18 21 38 39 
4 39 38 20 19 
4 12 18 39 36 
4 36 39 19 13 
4 36 37 38 39 
4 0 8 41 40 
4 40 41 11 3 
4 8 15 37 41 
4 41 37 14 11 
4 0 12 36 40 
4 40 36 13 3 
4 40 41 37 36 
4 9 21 38 42 
4 42 38 20 10 
4 4 9 42 43 
4 43 42 10 7 
4 4 18 39 43 
4 43 39 19 7 
4 39 38 42 43 
4 15 27 34 37 
4 37 34 26 14 
4 8 24 35 41 
4 41 35 25 11 
4 35 34 37 41 
4 17 23 44 33 
4 33 44 22 16 
4 23 28 45 44 
4 44 45 29 22 
4 27 28 45 34 
4 34 45 29 26 
4 33 44 45 34 
4 21 28 45 38 
4 38 45 29 20 
4 34 45 38 37 
4 5 23 44 46 
4 46 44 22 6 
4 28 30 47 45 
4 45 47 31 29 
4 5 30 47 46 
4 46 47 31 6 
4 46 44 45 47 
4 9 30 47 42 
4 42 47 31 10 
4 47 45 38 42 

CELL_TYPES 75
9 
9 
9 
9 
9 
9 
9 
9 
9 
9 
9 
9 
9 
9 
9 
9 
9 
9 
9 
9 
9 
9 
9 
9 
9 
9 
9 
9 
9 
9 
9 
9 
9 
9 
9 
9 
9 
9 
9 
9 
9 
9 
9 
9 
9 
9 
9 
9 
9 
9 
9 
9 
9 
9 
9 
9 
9 
9 
9 
9 
9 
9 
9 
9 
9 
9 
9 
9 
9 
9 
9 
9 
9 
9 
9 
POINT_DATA 48
SCALARS GMDS_ID int 1
LOOKUP_TABLE default
0 1 2 3 4 5 6 7 8 9 10 11 12 13 14 15 16 17 18 19 20 21 22 23 24 25 26 27 28 29 30 31 32 33 34 35 36 37 38 39 40 41 42 43 44 45 46 47 
SCALARS geom_link_dim_0 int 1
LOOKUP_TABLE default
0 0 0 0 0 0 0 0 0 0 0 0 0 0 0 0 0 0 0 0 0 0 0 0 0 0 0 0 0 0 0 0 0 0 0 0 0 0 0 0 0 0 0 0 0 0 0 0 
SCALARS geom_link_id_0 int 1
LOOKUP_TABLE default
0 0 0 0 0 0 0 0 0 0 0 0 0 0 0 0 0 0 0 0 0 0 0 0 0 0 0 0 0 0 0 0 0 0 0 0 0 0 0 0 0 0 0 0 0 0 0 0 


CELL_DATA 75
SCALARS GMDS_ID int 1
LOOKUP_TABLE default
0 1 2 7 9 10 13 17 18 20 21 24 26 27 29 30 33 34 35 36 38 39 42 43 45 46 49 50 52 53 54 55 56 57 58 59 60 61 62 63 64 65 66 67 68 69 70 71 72 73 74 75 76 77 78 79 80 81 82 83 84 85 86 87 88 89 90 91 92 93 94 95 96 97 98 

SCALARS geom_link_dim_0 int 1
LOOKUP_TABLE default
0 0 0 0 0 0 0 0 0 0 0 0 0 0 0 0 0 0 0 0 0 0 0 0 0 0 0 0 0 0 0 0 0 0 0 0 0 0 0 0 0 0 0 0 0 0 0 0 0 0 0 0 0 0 0 0 0 0 0 0 0 0 0 0 0 0 0 0 0 0 0 0 0 0 0 

SCALARS geom_link_id_0 int 1
LOOKUP_TABLE default
0 0 0 0 0 0 0 0 0 0 0 0 0 0 0 0 0 0 0 0 0 0 0 0 0 0 0 0 0 0 0 0 0 0 0 0 0 0 0 0 0 0 0 0 0 0 0 0 0 0 0 0 0 0 0 0 0 0 0 0 0 0 0 0 0 0 0 0 0 0 0 0 0 0 0 

