# vtk DataFile Version 3.0
Generated by GMDS VTK Writer

ASCII
DATASET UNSTRUCTURED_GRID
POINTS 32 float
-5 0 0
5 0 10
5 0 -5
5 5 -5
5 5 10
10 5 5
5 5 5
5 10 5
10 0 5
5 0 5
5 -5 5
-5 0 5
-5 5 5
0 0 -5
0 0 5
0 -5 5
0 0 10
0 5 -5
0 5 5
0 5 10
0 10 5
-5 5 0
0 5 0
0 0 0
10 5 0
5 5 0
5 10 0
10 0 0
5 0 0
5 -5 0
0 -5 0
0 10 0

CELLS 36 180
4 27 28 9 8 
4 16 14 9 1 
4 14 15 10 9 
4 9 6 4 1 
4 8 9 6 5 
4 26 25 6 7 
4 24 25 6 5 
4 0 21 22 23 
4 0 23 14 11 
4 23 22 18 14 
4 13 17 22 23 
4 21 22 18 12 
4 13 17 3 2 
4 11 12 18 14 
4 14 18 6 9 
4 19 18 6 4 
4 16 19 4 1 
4 14 18 19 16 
4 0 21 12 11 
4 18 20 7 6 
4 2 3 25 28 
4 28 25 6 9 
4 27 24 5 8 
4 27 28 25 24 
4 29 28 9 10 
4 30 23 14 15 
4 2 13 23 28 
4 28 23 14 9 
4 29 30 15 10 
4 30 23 28 29 
4 3 17 22 25 
4 25 22 18 6 
4 23 22 25 28 
4 22 31 20 18 
4 26 31 20 7 
4 31 22 25 26 

CELL_TYPES 36
9 
9 
9 
9 
9 
9 
9 
9 
9 
9 
9 
9 
9 
9 
9 
9 
9 
9 
9 
9 
9 
9 
9 
9 
9 
9 
9 
9 
9 
9 
9 
9 
9 
9 
9 
9 
POINT_DATA 32
SCALARS GMDS_ID int 1
LOOKUP_TABLE default
1 14 15 20 21 24 25 26 28 29 31 32 34 37 38 39 40 42 43 44 46 48 49 50 51 52 53 55 56 58 59 61 
SCALARS geom_link_dim int 1
LOOKUP_TABLE default
1 1 1 1 1 1 1 1 1 1 1 1 1 1 1 1 1 1 1 1 1 1 1 1 1 1 1 1 1 1 1 1 
SCALARS geom_link_id int 1
LOOKUP_TABLE default
11 24 25 17 15 22 8 7 30 23 32 13 6 19 14 27 20 18 2 16 3 5 1 12 21 10 9 29 26 31 28 4 


CELL_DATA 36
SCALARS GMDS_ID int 1
LOOKUP_TABLE default
0 13 22 41 44 53 57 59 60 64 65 68 69 72 73 76 78 79 80 83 92 93 95 96 100 105 106 107 109 110 116 117 118 120 122 123 

SCALARS geom_link_dim int 1
LOOKUP_TABLE default
3 3 3 3 3 3 3 3 3 4 3 3 3 3 4 3 3 3 3 3 3 4 3 3 3 3 3 4 3 3 3 4 4 3 3 3 

SCALARS geom_link_id int 1
LOOKUP_TABLE default
22 30 6 15 20 28 11 27 10 1 3 19 26 9 1 4 25 16 18 13 17 1 23 21 2 24 1 1 29 5 12 1 1 7 8 14 

