# vtk DataFile Version 3.0
Generated by GMDS VTK Writer

ASCII
DATASET UNSTRUCTURED_GRID
POINTS 24 float
-5 -5 -5
-5 10 -5
5 -5 0
10 -5 -5
-5 -5 10
-5 10 10
10 -5 -8.88178419700125e-16
10 -5 10
5 10 -5
5 -5 -5
5 -5 10
5 10 10
10 5 -5
10 5 10
5 5 10
5 5 -5
-5 5 10
-5 5 -5
5 5 0
10 5 0
-5 -5 -8.88178419700125e-16
-5 5 0
5 10 0
-5 10 -8.88178419700125e-16

CELLS 29 145
4 6 2 10 7 
4 20 2 10 4 
4 7 10 14 13 
4 0 9 2 20 
4 9 15 18 2 
4 6 2 18 19 
4 6 19 13 7 
4 3 12 19 6 
4 19 18 14 13 
4 2 18 14 10 
4 12 15 18 19 
4 3 9 15 12 
4 3 9 2 6 
4 4 10 14 16 
4 16 14 11 5 
4 0 9 15 17 
4 17 15 8 1 
4 15 17 21 18 
4 18 21 16 14 
4 0 17 21 20 
4 20 21 16 4 
4 20 2 18 21 
4 8 15 18 22 
4 22 18 14 11 
4 1 8 22 23 
4 23 22 11 5 
4 1 17 21 23 
4 23 21 16 5 
4 21 18 22 23 

CELL_TYPES 29
9 
9 
9 
9 
9 
9 
9 
9 
9 
9 
9 
9 
9 
9 
9 
9 
9 
9 
9 
9 
9 
9 
9 
9 
9 
9 
9 
9 
9 
POINT_DATA 24
SCALARS GMDS_ID int 1
LOOKUP_TABLE default
0 1 2 3 4 5 6 7 8 9 10 11 12 13 14 15 16 17 18 19 20 21 22 23 
SCALARS geom_link_dim_0 int 1
LOOKUP_TABLE default
0 0 0 0 0 0 0 0 0 0 0 0 0 0 0 0 0 0 0 0 0 0 0 0 
SCALARS geom_link_id_0 int 1
LOOKUP_TABLE default
0 0 0 0 0 0 0 0 0 0 0 0 0 0 0 0 0 0 0 0 0 0 0 0 


CELL_DATA 29
SCALARS GMDS_ID int 1
LOOKUP_TABLE default
0 1 2 3 4 6 7 10 11 12 14 17 18 20 21 24 25 27 28 29 30 31 32 33 34 35 36 37 38 

SCALARS geom_link_dim_0 int 1
LOOKUP_TABLE default
0 0 0 0 0 0 0 0 0 0 0 0 0 0 0 0 0 0 0 0 0 0 0 0 0 0 0 0 0 

SCALARS geom_link_id_0 int 1
LOOKUP_TABLE default
0 0 0 0 0 0 0 0 0 0 0 0 0 0 0 0 0 0 0 0 0 0 0 0 0 0 0 0 0 

