# vtk DataFile Version 3.0
Generated by GMDS VTK Writer

ASCII
DATASET UNSTRUCTURED_GRID
POINTS 32 float
-5 -5 -5
-5 10 -5
10 10 -5
10 -5 -5
-5 -5 10
-5 10 10
10 10 10
10 -5 10
-5 -8.88178419700125e-16 -5
-5 -8.88178419700125e-16 10
10 -8.88178419700125e-16 10
10 -8.88178419700125e-16 -5
-5 -5 -8.88178419700125e-16
10 -5 -8.88178419700125e-16
10 0 0
-5 0 0
10 10 -8.88178419700125e-16
-5 10 -8.88178419700125e-16
-5 -5 5
10 -5 5
10 0 5
-5 0 5
10 10 5
-5 10 5
-5 5 -5
10 5 -5
10 5 0
-5 5 0
-5 5 5
10 5 5
-5 5 10
10 5 10

CELLS 42 210
4 1 17 27 24 
4 3 11 14 13 
4 12 15 21 18 
4 26 27 15 14 
4 20 21 9 10 
4 0 3 13 12 
4 14 15 21 20 
4 19 20 10 7 
4 4 7 10 9 
4 13 14 20 19 
4 18 19 7 4 
4 0 3 11 8 
4 12 13 19 18 
4 8 11 14 15 
4 16 17 27 26 
4 0 8 15 12 
4 25 26 14 11 
4 12 13 14 15 
4 2 16 26 25 
4 1 2 16 17 
4 24 25 11 8 
4 1 2 25 24 
4 18 21 9 4 
4 18 19 20 21 
4 16 17 23 22 
4 22 23 5 6 
4 24 27 15 8 
4 24 25 26 27 
4 17 23 28 27 
4 27 28 21 15 
4 22 23 28 29 
4 29 28 21 20 
4 16 22 29 26 
4 26 29 20 14 
4 26 27 28 29 
4 5 23 28 30 
4 30 28 21 9 
4 5 6 31 30 
4 30 31 10 9 
4 6 22 29 31 
4 31 29 20 10 
4 29 28 30 31 

CELL_TYPES 42
9 
9 
9 
9 
9 
9 
9 
9 
9 
9 
9 
9 
9 
9 
9 
9 
9 
9 
9 
9 
9 
9 
9 
9 
9 
9 
9 
9 
9 
9 
9 
9 
9 
9 
9 
9 
9 
9 
9 
9 
9 
9 
POINT_DATA 32
SCALARS GMDS_ID int 1
LOOKUP_TABLE default
0 1 2 3 4 5 6 7 8 9 10 11 12 13 14 15 16 17 18 19 20 21 22 23 24 25 26 27 28 29 30 31 
SCALARS geom_link_dim_0 int 1
LOOKUP_TABLE default
0 0 0 0 0 0 0 0 0 0 0 0 0 0 0 0 0 0 0 0 0 0 0 0 0 0 0 0 0 0 0 0 
SCALARS geom_link_id_0 int 1
LOOKUP_TABLE default
0 0 0 0 0 0 0 0 0 0 0 0 0 0 0 0 0 0 0 0 0 0 0 0 0 0 0 0 0 0 0 0 


CELL_DATA 42
SCALARS GMDS_ID int 1
LOOKUP_TABLE default
0 1 2 3 4 5 6 7 8 10 11 12 14 15 16 17 18 19 21 22 23 25 27 28 31 32 36 37 38 39 40 41 42 43 44 45 46 47 48 49 50 51 

SCALARS geom_link_dim_0 int 1
LOOKUP_TABLE default
0 0 0 0 0 0 0 0 0 0 0 0 0 0 0 0 0 0 0 0 0 0 0 0 0 0 0 0 0 0 0 0 0 0 0 0 0 0 0 0 0 0 

SCALARS geom_link_id_0 int 1
LOOKUP_TABLE default
0 0 0 0 0 0 0 0 0 0 0 0 0 0 0 0 0 0 0 0 0 0 0 0 0 0 0 0 0 0 0 0 0 0 0 0 0 0 0 0 0 0 

