# vtk DataFile Version 3.0
Generated by GMDS VTK Writer

ASCII
DATASET UNSTRUCTURED_GRID
POINTS 40 float
10 5 5
0 10 5
5 5 5
5 -5 5
10 0 5
8.88178419700125e-16 -5 10
8.88178419700125e-16 10 10
0 0 5
0 5 10
0 5 -5
-5 5 10
-5 5 -5
5 5 -5
5 5 10
5 10 10
0 -5 5
-5 5 5
5 -5 10
0 0 -5
0 0 10
-5 -4.44089209850063e-16 10
-5 -4.44089209850063e-16 -5
-5 0 5
5 0 10
5 0 -5
5 0 5
0 -5 0
0 0 0
-5 0 0
0 5 5
10 5 0
5 5 0
5 10 0
-5 5 0
0 5 0
0 10 0
5 10 5
5 -5 0
5 0 0
10 0 0

CELLS 52 260
4 26 27 7 15 
4 7 25 23 19 
4 14 13 8 6 
4 36 1 6 14 
4 20 19 8 10 
4 38 39 4 25 
4 3 25 23 17 
4 15 3 17 5 
4 7 25 2 29 
4 22 16 10 20 
4 26 37 3 15 
4 18 21 28 27 
4 7 29 8 19 
4 37 38 25 3 
4 22 7 29 16 
4 21 18 9 11 
4 2 29 8 13 
4 27 34 29 7 
4 5 17 23 19 
4 19 23 13 8 
4 28 33 16 22 
4 18 24 12 9 
4 29 1 6 8 
4 27 28 22 7 
4 30 31 2 0 
4 27 38 25 7 
4 34 35 1 29 
4 32 35 1 36 
4 9 11 33 34 
4 2 25 23 13 
4 15 3 25 7 
4 30 39 4 0 
4 15 7 19 5 
4 4 25 2 0 
4 9 12 31 34 
4 31 38 25 2 
4 32 31 34 35 
4 9 18 27 34 
4 11 21 28 33 
4 28 27 34 33 
4 2 36 14 13 
4 33 34 29 16 
4 7 22 20 19 
4 31 32 36 2 
4 31 34 29 2 
4 12 24 38 31 
4 36 2 29 1 
4 39 38 31 30 
4 16 29 8 10 
4 18 24 38 27 
4 26 37 38 27 
4 27 38 31 34 

CELL_TYPES 52
9 
9 
9 
9 
9 
9 
9 
9 
9 
9 
9 
9 
9 
9 
9 
9 
9 
9 
9 
9 
9 
9 
9 
9 
9 
9 
9 
9 
9 
9 
9 
9 
9 
9 
9 
9 
9 
9 
9 
9 
9 
9 
9 
9 
9 
9 
9 
9 
9 
9 
9 
9 
POINT_DATA 40
SCALARS GMDS_ID int 1
LOOKUP_TABLE default
0 6 7 8 9 10 11 12 14 15 16 17 18 19 20 21 22 23 24 25 26 27 28 30 31 32 33 34 35 36 37 38 39 40 41 42 44 45 46 47 
SCALARS geom_link_dim int 1
LOOKUP_TABLE default
1 1 1 1 1 0 0 1 1 1 0 0 1 1 0 1 1 0 1 1 0 0 1 1 1 1 1 1 1 1 1 1 1 1 1 1 1 1 1 1 
SCALARS geom_link_id int 1
LOOKUP_TABLE default
22 3 8 32 30 -1 -1 14 16 18 -1 -1 17 15 -1 27 6 -1 19 20 -1 -1 13 24 25 23 28 12 11 2 21 10 9 5 1 4 7 31 26 29 


CELL_DATA 52
SCALARS GMDS_ID int 1
LOOKUP_TABLE default
1 5 7 10 12 15 17 20 21 22 25 31 33 34 35 36 40 45 47 48 49 50 52 53 55 57 58 59 60 62 65 66 67 68 69 71 73 74 76 78 80 81 83 86 87 88 90 92 93 95 97 98 

SCALARS geom_link_dim int 1
LOOKUP_TABLE default
0 0 0 0 0 0 0 0 0 0 0 0 0 0 0 0 0 0 0 0 0 0 0 0 0 0 0 0 0 0 0 0 0 0 0 0 0 0 0 0 0 0 0 0 0 0 0 0 0 0 0 0 

SCALARS geom_link_id int 1
LOOKUP_TABLE default
0 0 0 0 0 0 0 0 0 0 0 0 0 0 0 0 0 0 0 0 0 0 0 0 0 0 0 0 0 0 0 0 0 0 0 0 0 0 0 0 0 0 0 0 0 0 0 0 0 0 0 0 

