# vtk DataFile Version 3.0
Generated by GMDS VTK Writer

ASCII
DATASET UNSTRUCTURED_GRID
POINTS 50 float
-5 -5 -5
5 -5 0
10 -5 -5
-5 -5 10
10 -5 -8.88178419700125e-16
5 -5 -5
5 -5 10
5 10 10
10 5 -5
5 5 10
5 5 -5
-5 5 10
-5 5 -5
5 5 0
10 5 0
-5 -5 -8.88178419700125e-16
-5 5 0
5 10 0
8.88178419700125e-16 -5 -5
0 5 -5
0 5 0
0 -5 0
0 5 10
8.88178419700125e-16 -5 10
0 10 0
8.88178419700125e-16 10 10
10 0 0
5 0 0
5 0 10
0 0 -5
0 0 0
5 0 -5
-5 -4.44089209850063e-16 -5
-5 0 0
10 -4.44089209850063e-16 -5
-5 -4.44089209850063e-16 10
0 0 10
10 0 5
5 0 5
5 5 5
10 5 5
5 -5 5
-5 5 5
0 5 5
0 10 5
5 10 5
-5 -5 5
0 -5 5
0 0 5
-5 0 5

CELLS 72 360
4 1 21 30 27 
4 29 30 20 19 
4 41 38 27 1 
4 6 28 38 41 
4 0 15 21 18 
4 8 10 13 14 
4 37 38 39 40 
4 40 37 26 14 
4 2 5 1 4 
4 19 20 13 10 
4 18 21 30 29 
4 12 16 20 19 
4 40 39 13 14 
4 39 38 27 13 
4 27 26 14 13 
4 1 4 26 27 
4 9 28 38 39 
4 38 37 26 27 
4 20 24 17 13 
4 25 22 9 7 
4 27 30 20 13 
4 1 5 31 27 
4 27 31 10 13 
4 31 29 19 10 
4 29 30 27 31 
4 0 15 33 32 
4 32 33 16 12 
4 15 21 30 33 
4 33 30 20 16 
4 0 18 29 32 
4 32 29 19 12 
4 32 33 30 29 
4 2 5 31 34 
4 34 31 10 8 
4 2 4 26 34 
4 34 26 14 8 
4 34 31 27 26 
4 3 23 36 35 
4 35 36 22 11 
4 6 23 36 28 
4 28 36 22 9 
4 11 22 43 42 
4 42 43 20 16 
4 22 25 44 43 
4 43 44 24 20 
4 9 22 43 39 
4 39 43 20 13 
4 7 9 39 45 
4 45 39 13 17 
4 7 25 44 45 
4 45 44 24 17 
4 44 43 39 45 
4 3 23 47 46 
4 46 47 21 15 
4 23 36 48 47 
4 47 48 30 21 
4 35 36 48 49 
4 49 48 30 33 
4 3 35 49 46 
4 46 49 33 15 
4 46 47 48 49 
4 22 36 48 43 
4 43 48 30 20 
4 11 35 49 42 
4 42 49 33 16 
4 49 48 43 42 
4 6 23 47 41 
4 41 47 21 1 
4 28 36 48 38 
4 38 48 30 27 
4 41 47 48 38 
4 38 48 43 39 

CELL_TYPES 72
9 
9 
9 
9 
9 
9 
9 
9 
9 
9 
9 
9 
9 
9 
9 
9 
9 
9 
9 
9 
9 
9 
9 
9 
9 
9 
9 
9 
9 
9 
9 
9 
9 
9 
9 
9 
9 
9 
9 
9 
9 
9 
9 
9 
9 
9 
9 
9 
9 
9 
9 
9 
9 
9 
9 
9 
9 
9 
9 
9 
9 
9 
9 
9 
9 
9 
9 
9 
9 
9 
9 
9 
POINT_DATA 50
SCALARS GMDS_ID int 1
LOOKUP_TABLE default
0 2 3 4 6 9 10 11 12 14 15 16 17 18 19 20 21 22 24 25 26 27 28 29 31 32 33 34 35 37 38 39 40 41 42 43 44 45 46 47 48 50 52 53 54 55 56 57 58 59 
SCALARS geom_link_dim_0 int 1
LOOKUP_TABLE default
0 0 0 0 0 0 0 0 0 0 0 0 0 0 0 0 0 0 0 0 0 0 0 0 0 0 0 0 0 0 0 0 0 0 0 0 0 0 0 0 0 0 0 0 0 0 0 0 0 0 
SCALARS geom_link_id_0 int 1
LOOKUP_TABLE default
0 0 0 0 0 0 0 0 0 0 0 0 0 0 0 0 0 0 0 0 0 0 0 0 0 0 0 0 0 0 0 0 0 0 0 0 0 0 0 0 0 0 0 0 0 0 0 0 0 0 


CELL_DATA 72
SCALARS GMDS_ID int 1
LOOKUP_TABLE default
1 3 8 10 13 14 16 17 18 19 20 22 26 30 35 38 40 41 48 53 57 58 59 61 62 63 64 65 66 67 68 69 70 71 72 73 74 79 80 82 83 86 87 88 89 93 94 95 96 97 98 99 100 101 102 103 104 105 106 107 108 109 110 111 112 113 114 115 116 117 118 119 

SCALARS geom_link_dim_0 int 1
LOOKUP_TABLE default
0 0 0 0 0 0 0 0 0 0 0 0 0 0 0 0 0 0 0 0 0 0 0 0 0 0 0 0 0 0 0 0 0 0 0 0 0 0 0 0 0 0 0 0 0 0 0 0 0 0 0 0 0 0 0 0 0 0 0 0 0 0 0 0 0 0 0 0 0 0 0 0 

SCALARS geom_link_id_0 int 1
LOOKUP_TABLE default
0 0 0 0 0 0 0 0 0 0 0 0 0 0 0 0 0 0 0 0 0 0 0 0 0 0 0 0 0 0 0 0 0 0 0 0 0 0 0 0 0 0 0 0 0 0 0 0 0 0 0 0 0 0 0 0 0 0 0 0 0 0 0 0 0 0 0 0 0 0 0 0 

