# vtk DataFile Version 3.0
Generated by GMDS VTK Writer

ASCII
DATASET UNSTRUCTURED_GRID
POINTS 53 float
10 -5 -5
-5 10 10
10 10 10
10 -5 10
-5 -8.88178419700125e-16 10
10 -8.88178419700125e-16 10
10 -8.88178419700125e-16 -5
-5 -5 -8.88178419700125e-16
10 -5 -8.88178419700125e-16
10 0 0
-5 0 0
-5 10 -8.88178419700125e-16
-8.88178419700125e-16 -5 -5
0 0 -5
0 0 0
0 -5 0
0 0 10
0 10 0
-8.88178419700125e-16 10 10
-5 5 0
0 5 0
0 5 -5
10 5 0
-5 5 10
0 5 10
10 5 10
0 -5 5
0 0 5
10 0 5
10 -5 5
10 5 5
-2.22044604925031e-16 5 5
-5 -5 5
-5 0 5
10 10 5
0 10 5
-5 5 5
-5 10 5
5 5 -5
5 5 0
5 0 0
5 0 -5
5 10 0
5 5 5
5 0 5
5 -5 -5
5 -5 0
5 -5 5
5 -5 10
5 0 10
5 5 10
5 10 5
5 10 10

CELLS 79 395
4 20 31 43 39 
4 0 6 9 8 
4 7 10 14 15 
4 21 20 14 13 
4 19 20 14 10 
4 14 20 31 27 
4 11 17 20 19 
4 12 13 14 15 
4 17 20 39 42 
4 29 28 5 3 
4 8 9 28 29 
4 38 39 40 41 
4 14 15 26 27 
4 13 21 38 41 
4 41 40 9 6 
4 13 14 40 41 
4 1 18 24 23 
4 23 24 16 4 
4 40 39 22 9 
4 14 20 39 40 
4 20 21 38 39 
4 27 31 24 16 
4 9 22 30 28 
4 28 30 25 5 
4 7 10 33 32 
4 10 14 27 33 
4 33 27 16 4 
4 7 15 26 32 
4 32 33 27 26 
4 17 20 31 35 
4 35 31 24 18 
4 34 30 25 2 
4 19 20 31 36 
4 36 31 24 23 
4 10 19 36 33 
4 33 36 23 4 
4 36 31 27 33 
4 11 17 35 37 
4 37 35 18 1 
4 11 19 36 37 
4 37 36 23 1 
4 37 35 31 36 
4 39 43 30 22 
4 27 31 43 44 
4 44 43 30 28 
4 14 27 44 40 
4 40 44 28 9 
4 40 39 43 44 
4 12 13 41 45 
4 45 41 6 0 
4 14 15 46 40 
4 40 46 8 9 
4 12 15 46 45 
4 45 46 8 0 
4 45 41 40 46 
4 26 27 44 47 
4 47 44 28 29 
4 48 47 29 3 
4 49 48 3 5 
4 16 27 44 49 
4 49 44 28 5 
4 44 47 48 49 
4 15 26 47 46 
4 46 47 29 8 
4 40 46 47 44 
4 24 31 43 50 
4 50 43 30 25 
4 16 24 50 49 
4 49 50 25 5 
4 44 43 50 49 
4 31 35 51 43 
4 43 51 34 30 
4 17 35 51 42 
4 42 39 43 51 
4 18 24 50 52 
4 52 50 25 2 
4 18 35 51 52 
4 52 51 34 2 
4 51 43 50 52 

CELL_TYPES 79
9 
9 
9 
9 
9 
9 
9 
9 
9 
9 
9 
9 
9 
9 
9 
9 
9 
9 
9 
9 
9 
9 
9 
9 
9 
9 
9 
9 
9 
9 
9 
9 
9 
9 
9 
9 
9 
9 
9 
9 
9 
9 
9 
9 
9 
9 
9 
9 
9 
9 
9 
9 
9 
9 
9 
9 
9 
9 
9 
9 
9 
9 
9 
9 
9 
9 
9 
9 
9 
9 
9 
9 
9 
9 
9 
9 
9 
9 
9 
POINT_DATA 53
SCALARS GMDS_ID int 1
LOOKUP_TABLE default
3 5 6 7 9 10 11 12 13 14 15 17 18 19 20 21 22 25 26 28 29 30 31 33 34 35 36 37 38 39 40 41 42 43 44 45 46 47 48 49 50 51 53 54 55 56 57 58 59 60 61 62 63 
SCALARS geom_link_dim_0 int 1
LOOKUP_TABLE default
0 0 0 0 0 0 0 0 0 0 0 0 0 0 0 0 0 0 0 0 0 0 0 0 0 0 0 0 0 0 0 0 0 0 0 0 0 0 0 0 0 0 0 0 0 0 0 0 0 0 0 0 0 
SCALARS geom_link_id_0 int 1
LOOKUP_TABLE default
0 0 0 0 0 0 0 0 0 0 0 0 0 0 0 0 0 0 0 0 0 0 0 0 0 0 0 0 0 0 0 0 0 0 0 0 0 0 0 0 0 0 0 0 0 0 0 0 0 0 0 0 0 


CELL_DATA 79
SCALARS GMDS_ID int 1
LOOKUP_TABLE default
0 1 6 15 19 20 22 28 34 38 39 46 47 53 54 55 56 57 58 59 63 64 65 66 68 70 71 72 74 77 78 80 82 83 84 85 86 87 88 89 90 91 92 93 94 95 96 97 98 99 100 101 102 103 104 105 106 108 110 111 112 113 114 115 116 117 118 119 120 121 122 123 124 126 127 128 129 130 131 

SCALARS geom_link_dim_0 int 1
LOOKUP_TABLE default
0 0 0 0 0 0 0 0 0 0 0 0 0 0 0 0 0 0 0 0 0 0 0 0 0 0 0 0 0 0 0 0 0 0 0 0 0 0 0 0 0 0 0 0 0 0 0 0 0 0 0 0 0 0 0 0 0 0 0 0 0 0 0 0 0 0 0 0 0 0 0 0 0 0 0 0 0 0 0 

SCALARS geom_link_id_0 int 1
LOOKUP_TABLE default
0 0 0 0 0 0 0 0 0 0 0 0 0 0 0 0 0 0 0 0 0 0 0 0 0 0 0 0 0 0 0 0 0 0 0 0 0 0 0 0 0 0 0 0 0 0 0 0 0 0 0 0 0 0 0 0 0 0 0 0 0 0 0 0 0 0 0 0 0 0 0 0 0 0 0 0 0 0 0 

