# vtk DataFile Version 3.0
Generated by GMDS VTK Writer

ASCII
DATASET UNSTRUCTURED_GRID
POINTS 48 float
5 -5 0
5 10 0
10 10 -5
10 -5 -5
0 0 5
5 0 5
5 0 10
0 0 10
8.88178419700125e-16 10 -5
8.88178419700125e-16 -5 -5
8.88178419700125e-16 -5 10
10 10 -8.88178419700125e-16
10 -5 -8.88178419700125e-16
0 -5 0
0 10 0
-5 -5 -8.88178419700125e-16
5 -5 10
5 10 -5
5 -5 -5
5 10 5
5 -5 5
0 -5 5
0 10 5
10 10 5
10 -5 5
-5 -5 5
5 0 0
0 0 0
10 -8.88178419700125e-16 -5
10 0 0
5 0 -5
0 0 -5
10 0 5
-5 0 0
-5 0 5
5 5 0
0 5 0
0 5 5
5 5 5
0 5 10
5 5 10
10 5 -5
10 5 0
5 5 -5
0 5 -5
10 5 5
-5 5 0
-5 5 5

CELLS 68 340
4 1 14 22 19 
4 41 42 11 2 
4 38 37 39 40 
4 5 6 40 38 
4 3 12 29 28 
4 26 27 4 5 
4 20 21 10 16 
4 0 20 5 26 
4 6 7 39 40 
4 0 13 21 20 
4 4 7 39 37 
4 13 21 4 27 
4 35 36 37 38 
4 0 13 27 26 
4 38 35 1 19 
4 5 4 7 6 
4 5 26 35 38 
4 3 12 0 18 
4 18 0 13 9 
4 2 11 1 17 
4 17 1 14 8 
4 37 38 19 22 
4 4 5 38 37 
4 37 36 14 22 
4 16 20 5 6 
4 0 12 24 20 
4 1 11 23 19 
4 10 16 6 7 
4 4 27 36 37 
4 13 15 25 21 
4 10 21 4 7 
4 35 36 14 1 
4 20 21 4 5 
4 26 27 36 35 
4 0 12 29 26 
4 0 18 30 26 
4 3 18 30 28 
4 28 29 26 30 
4 9 13 27 31 
4 9 18 30 31 
4 30 26 27 31 
4 12 24 32 29 
4 20 24 32 5 
4 26 29 32 5 
4 13 15 33 27 
4 15 25 34 33 
4 21 25 34 4 
4 27 33 34 4 
4 26 29 42 35 
4 35 42 11 1 
4 26 30 43 35 
4 35 43 17 1 
4 41 43 17 2 
4 41 42 35 43 
4 27 31 44 36 
4 36 44 8 14 
4 30 31 44 43 
4 43 44 8 17 
4 43 35 36 44 
4 29 32 45 42 
4 42 45 23 11 
4 5 32 45 38 
4 38 45 23 19 
4 35 42 45 38 
4 27 33 46 36 
4 33 34 47 46 
4 4 34 47 37 
4 36 46 47 37 

CELL_TYPES 68
9 
9 
9 
9 
9 
9 
9 
9 
9 
9 
9 
9 
9 
9 
9 
9 
9 
9 
9 
9 
9 
9 
9 
9 
9 
9 
9 
9 
9 
9 
9 
9 
9 
9 
9 
9 
9 
9 
9 
9 
9 
9 
9 
9 
9 
9 
9 
9 
9 
9 
9 
9 
9 
9 
9 
9 
9 
9 
9 
9 
9 
9 
9 
9 
9 
9 
9 
9 
POINT_DATA 48
SCALARS GMDS_ID int 1
LOOKUP_TABLE default
0 1 2 3 4 5 6 7 8 9 10 12 13 14 15 16 18 20 21 22 23 24 25 26 27 28 30 31 32 33 34 35 36 37 38 39 40 41 42 43 44 45 46 47 48 49 50 51 
SCALARS geom_link_dim int 1
LOOKUP_TABLE default
1 1 0 0 1 1 1 1 0 0 0 0 0 1 1 0 0 0 0 1 1 1 1 0 0 0 1 1 0 1 1 1 1 1 1 1 1 1 1 1 1 0 1 1 1 1 1 1 
SCALARS geom_link_id int 1
LOOKUP_TABLE default
31 9 -1 -1 14 23 24 20 -1 -1 -1 -1 -1 28 4 -1 -1 -1 -1 7 32 27 3 -1 -1 -1 26 12 -1 29 25 19 30 11 13 10 1 2 8 16 15 -1 21 17 18 22 5 6 


CELL_DATA 68
SCALARS GMDS_ID int 1
LOOKUP_TABLE default
0 1 3 6 7 8 10 12 15 17 19 20 22 23 24 25 26 27 28 29 30 31 33 34 35 36 38 39 40 41 42 43 46 47 48 50 52 54 55 57 59 60 62 64 65 67 69 71 72 73 74 75 77 78 79 80 81 82 83 84 85 86 87 88 89 91 93 95 

SCALARS geom_link_dim int 1
LOOKUP_TABLE default
0 0 0 0 0 0 0 0 0 0 0 0 0 0 0 0 0 0 0 0 0 0 0 0 0 0 0 0 0 0 0 0 0 0 0 0 0 0 0 0 0 0 0 0 0 0 0 0 0 0 0 0 0 0 0 0 0 0 0 0 0 0 0 0 0 0 0 0 

SCALARS geom_link_id int 1
LOOKUP_TABLE default
0 0 0 0 0 0 0 0 0 0 0 0 0 0 0 0 0 0 0 0 0 0 0 0 0 0 0 0 0 0 0 0 0 0 0 0 0 0 0 0 0 0 0 0 0 0 0 0 0 0 0 0 0 0 0 0 0 0 0 0 0 0 0 0 0 0 0 0 

