# vtk DataFile Version 3.0
Generated by GMDS VTK Writer

ASCII
DATASET UNSTRUCTURED_GRID
POINTS 34 float
5 0 -5
5 0 10
0 0 10
5 0 5
-5 0 5
-5 0 0
5 -5 10
0 0 -5
5 -5 0
5 10 0
10 0 5
5 -5 5
5 10 5
0 10 0
0 -5 0
0 10 5
0 -5 5
5 0 0
8.88178419700125e-16 -5 10
0 0 5
5 5 -5
5 5 0
10 5 0
5 5 5
10 5 5
0 5 -5
0 5 0
0 0 0
-5 5 0
-5 5 5
0 5 5
10 0 0
0 5 10
5 5 10

CELLS 40 200
4 13 15 12 9 
4 31 17 3 10 
4 7 0 20 25 
4 5 4 29 28 
4 27 19 30 26 
4 5 4 19 27 
4 17 27 26 21 
4 7 27 17 0 
4 31 10 24 22 
4 0 17 21 20 
4 5 27 26 28 
4 14 16 11 8 
4 2 19 3 1 
4 6 11 3 1 
4 1 2 32 33 
4 6 18 2 1 
4 27 19 3 17 
4 18 16 11 6 
4 1 3 23 33 
4 21 23 12 9 
4 10 3 23 24 
4 22 21 23 24 
4 21 26 13 9 
4 25 26 21 20 
4 7 27 26 25 
4 14 16 19 27 
4 4 19 30 29 
4 8 14 27 17 
4 26 30 15 13 
4 28 29 30 26 
4 23 30 15 12 
4 26 30 23 21 
4 3 19 30 23 
4 8 11 3 17 
4 31 17 21 22 
4 11 16 19 3 
4 17 3 23 21 
4 19 2 32 30 
4 16 18 2 19 
4 32 30 23 33 

CELL_TYPES 40
9 
9 
9 
9 
9 
9 
9 
9 
9 
9 
9 
9 
9 
9 
9 
9 
9 
9 
9 
9 
9 
9 
9 
9 
9 
9 
9 
9 
9 
9 
9 
9 
9 
9 
9 
9 
9 
9 
9 
9 
POINT_DATA 34
SCALARS GMDS_ID int 1
LOOKUP_TABLE default
0 1 3 5 6 8 10 12 14 15 18 20 21 24 25 26 27 28 29 30 31 32 33 34 35 36 37 38 39 40 41 42 43 44 
SCALARS geom_link_dim int 1
LOOKUP_TABLE default
1 1 1 1 1 1 0 1 1 1 1 1 1 1 1 1 1 1 0 1 1 1 1 1 1 1 1 1 1 1 1 1 1 1 
SCALARS geom_link_id int 1
LOOKUP_TABLE default
25 24 20 23 13 11 -1 19 31 9 30 32 7 4 28 3 27 26 -1 14 17 10 21 8 22 18 1 12 5 6 2 29 16 15 


CELL_DATA 40
SCALARS GMDS_ID int 1
LOOKUP_TABLE default
0 1 10 11 13 17 21 24 26 30 34 39 40 42 43 44 45 46 47 48 52 53 57 60 61 62 66 67 73 74 76 77 78 79 81 82 84 86 88 89 

SCALARS geom_link_dim int 1
LOOKUP_TABLE default
0 0 0 0 0 0 0 0 0 0 0 0 0 0 0 0 0 0 0 0 0 0 0 0 0 0 0 0 0 0 0 0 0 0 0 0 0 0 0 0 

SCALARS geom_link_id int 1
LOOKUP_TABLE default
0 0 0 0 0 0 0 0 0 0 0 0 0 0 0 0 0 0 0 0 0 0 0 0 0 0 0 0 0 0 0 0 0 0 0 0 0 0 0 0 

