# vtk DataFile Version 3.0
Generated by GMDS VTK Writer

ASCII
DATASET UNSTRUCTURED_GRID
POINTS 32 float
5 0 -5
5 0 10
0 0 10
5 0 5
-5 0 5
-5 0 0
0 0 -5
5 -5 0
5 10 0
10 0 5
5 -5 5
5 10 5
0 10 0
0 -5 0
0 10 5
0 -5 5
5 0 0
0 0 5
5 5 -5
5 5 0
10 5 0
5 5 5
10 5 5
0 5 -5
0 5 0
0 0 0
-5 5 0
-5 5 5
0 5 5
10 0 0
0 5 10
5 5 10

CELLS 36 180
4 12 14 11 8 
4 29 16 3 9 
4 6 0 18 23 
4 5 4 27 26 
4 25 17 28 24 
4 5 4 17 25 
4 16 25 24 19 
4 6 25 16 0 
4 29 9 22 20 
4 0 16 19 18 
4 5 25 24 26 
4 13 15 10 7 
4 2 17 3 1 
4 1 2 30 31 
4 25 17 3 16 
4 1 3 21 31 
4 19 21 11 8 
4 9 3 21 22 
4 20 19 21 22 
4 19 24 12 8 
4 23 24 19 18 
4 6 25 24 23 
4 13 15 17 25 
4 4 17 28 27 
4 7 13 25 16 
4 24 28 14 12 
4 26 27 28 24 
4 21 28 14 11 
4 24 28 21 19 
4 3 17 28 21 
4 7 10 3 16 
4 29 16 19 20 
4 10 15 17 3 
4 16 3 21 19 
4 17 2 30 28 
4 30 28 21 31 

CELL_TYPES 36
9 
9 
9 
9 
9 
9 
9 
9 
9 
9 
9 
9 
9 
9 
9 
9 
9 
9 
9 
9 
9 
9 
9 
9 
9 
9 
9 
9 
9 
9 
9 
9 
9 
9 
9 
9 
POINT_DATA 32
SCALARS GMDS_ID int 1
LOOKUP_TABLE default
0 1 3 5 6 8 12 14 15 18 20 21 24 25 26 27 28 30 31 32 33 34 35 36 37 38 39 40 41 42 43 44 
SCALARS geom_link_dim int 1
LOOKUP_TABLE default
1 1 1 1 1 1 1 1 1 1 1 1 1 1 1 1 1 1 1 1 1 1 1 1 1 1 1 1 1 1 1 1 
SCALARS geom_link_id int 1
LOOKUP_TABLE default
25 24 20 23 13 11 19 31 9 30 32 7 4 28 3 27 26 14 17 10 21 8 22 18 1 12 5 6 2 29 16 15 


CELL_DATA 36
SCALARS GMDS_ID int 1
LOOKUP_TABLE default
0 1 10 11 13 17 21 24 26 30 34 39 40 43 45 47 48 52 53 57 60 61 62 66 67 73 74 76 77 78 79 81 82 84 86 89 

SCALARS geom_link_dim int 1
LOOKUP_TABLE default
3 3 3 3 4 3 4 3 3 3 3 3 3 3 4 3 3 3 3 3 3 3 3 3 3 3 3 3 4 4 3 3 3 4 3 3 

SCALARS geom_link_id int 1
LOOKUP_TABLE default
8 22 26 18 1 10 1 1 23 17 27 29 30 25 1 15 28 20 11 14 12 3 24 9 5 7 19 13 1 1 2 21 6 1 16 4 

