# vtk DataFile Version 3.0
Generated by GMDS VTK Writer

ASCII
DATASET UNSTRUCTURED_GRID
POINTS 33 float
-5 -5 -5
-5 10 -5
5 -5 0
10 -5 -5
-5 -5 10
-5 10 10
10 -5 -8.88178419700125e-16
10 -5 10
5 10 -5
5 -5 -5
5 -5 10
5 10 10
10 5 -5
10 5 10
5 5 10
5 5 -5
-5 5 10
-5 5 -5
5 5 0
10 5 0
-5 -5 -8.88178419700125e-16
-5 5 0
5 10 0
-5 10 -8.88178419700125e-16
8.88178419700125e-16 -5 -5
0 5 -5
0 5 0
0 -5 0
0 5 10
8.88178419700125e-16 -5 10
8.88178419700125e-16 10 -5
0 10 0
8.88178419700125e-16 10 10

CELLS 45 225
4 6 2 10 7 
4 7 10 14 13 
4 9 15 18 2 
4 16 21 26 28 
4 6 2 18 19 
4 6 19 13 7 
4 24 25 26 27 
4 24 27 2 9 
4 3 12 19 6 
4 19 18 14 13 
4 2 18 14 10 
4 0 20 27 24 
4 12 15 18 19 
4 27 26 18 2 
4 20 21 26 27 
4 3 9 15 12 
4 3 9 2 6 
4 25 26 18 15 
4 17 21 26 25 
4 24 25 15 9 
4 0 17 25 24 
4 0 17 21 20 
4 20 21 16 4 
4 8 15 18 22 
4 22 18 14 11 
4 1 17 21 23 
4 23 21 16 5 
4 28 26 18 14 
4 4 16 28 29 
4 29 28 14 10 
4 4 20 27 29 
4 29 27 2 10 
4 27 26 28 29 
4 1 17 25 30 
4 30 25 15 8 
4 21 23 31 26 
4 26 31 22 18 
4 1 23 31 30 
4 30 31 22 8 
4 30 25 26 31 
4 5 16 28 32 
4 32 28 14 11 
4 5 23 31 32 
4 32 31 22 11 
4 31 26 28 32 

CELL_TYPES 45
9 
9 
9 
9 
9 
9 
9 
9 
9 
9 
9 
9 
9 
9 
9 
9 
9 
9 
9 
9 
9 
9 
9 
9 
9 
9 
9 
9 
9 
9 
9 
9 
9 
9 
9 
9 
9 
9 
9 
9 
9 
9 
9 
9 
9 
POINT_DATA 33
SCALARS GMDS_ID int 1
LOOKUP_TABLE default
0 1 2 3 4 5 6 7 8 9 10 11 12 13 14 15 16 17 18 19 20 21 22 23 24 25 26 27 28 29 30 31 32 
SCALARS geom_link_dim_0 int 1
LOOKUP_TABLE default
0 0 0 0 0 0 0 0 0 0 0 0 0 0 0 0 0 0 0 0 0 0 0 0 0 0 0 0 0 0 0 0 0 
SCALARS geom_link_id_0 int 1
LOOKUP_TABLE default
0 0 0 0 0 0 0 0 0 0 0 0 0 0 0 0 0 0 0 0 0 0 0 0 0 0 0 0 0 0 0 0 0 


CELL_DATA 45
SCALARS GMDS_ID int 1
LOOKUP_TABLE default
0 2 4 5 6 7 8 9 10 11 12 13 14 15 16 17 18 19 22 23 26 29 30 32 33 36 37 39 40 41 42 43 44 45 46 47 48 49 50 51 52 53 54 55 56 

SCALARS geom_link_dim_0 int 1
LOOKUP_TABLE default
0 0 0 0 0 0 0 0 0 0 0 0 0 0 0 0 0 0 0 0 0 0 0 0 0 0 0 0 0 0 0 0 0 0 0 0 0 0 0 0 0 0 0 0 0 

SCALARS geom_link_id_0 int 1
LOOKUP_TABLE default
0 0 0 0 0 0 0 0 0 0 0 0 0 0 0 0 0 0 0 0 0 0 0 0 0 0 0 0 0 0 0 0 0 0 0 0 0 0 0 0 0 0 0 0 0 

