# vtk DataFile Version 3.0
Generated by GMDS VTK Writer

ASCII
DATASET UNSTRUCTURED_GRID
POINTS 32 float
-5 -5 -5
-5 10 -5
10 10 -5
10 -5 -5
-5 -5 10
-5 10 10
10 10 10
10 -5 10
8.88178419700125e-16 10 -5
8.88178419700125e-16 -5 -5
8.88178419700125e-16 -5 10
8.88178419700125e-16 10 10
10 5 -5
10 5 10
0 5 10
0 5 -5
-5 5 10
-5 5 -5
5 5 -5
5 5 10
5 10 10
5 10 -5
5 -5 -5
5 -5 10
0 0 -5
0 0 10
-5 -4.44089209850063e-16 10
-5 -4.44089209850063e-16 -5
10 -4.44089209850063e-16 -5
10 -4.44089209850063e-16 10
5 0 10
5 0 -5

CELLS 42 210
4 0 9 24 27 
4 2 12 18 21 
4 27 26 16 17 
4 21 20 11 8 
4 12 13 6 2 
4 2 6 20 21 
4 20 19 14 11 
4 0 4 26 27 
4 9 10 4 0 
4 6 13 19 20 
4 18 19 14 15 
4 26 25 14 16 
4 8 11 5 1 
4 12 13 19 18 
4 15 14 11 8 
4 4 10 25 26 
4 24 25 14 15 
4 9 10 25 24 
4 16 14 11 5 
4 17 16 5 1 
4 17 15 8 1 
4 15 14 16 17 
4 21 18 15 8 
4 18 19 20 21 
4 3 7 23 22 
4 22 23 10 9 
4 27 24 15 17 
4 24 25 26 27 
4 3 7 29 28 
4 28 29 13 12 
4 7 23 30 29 
4 29 30 19 13 
4 22 23 30 31 
4 31 30 19 18 
4 3 22 31 28 
4 28 31 18 12 
4 28 29 30 31 
4 10 23 30 25 
4 25 30 19 14 
4 9 22 31 24 
4 24 31 18 15 
4 31 30 25 24 

CELL_TYPES 42
9 
9 
9 
9 
9 
9 
9 
9 
9 
9 
9 
9 
9 
9 
9 
9 
9 
9 
9 
9 
9 
9 
9 
9 
9 
9 
9 
9 
9 
9 
9 
9 
9 
9 
9 
9 
9 
9 
9 
9 
9 
9 
POINT_DATA 32
SCALARS GMDS_ID int 1
LOOKUP_TABLE default
0 1 2 3 4 5 6 7 8 9 10 11 12 13 14 15 16 17 18 19 20 21 22 23 24 25 26 27 28 29 30 31 
SCALARS geom_link_dim int 1
LOOKUP_TABLE default
0 0 0 0 0 0 0 0 0 0 0 0 0 0 1 1 0 0 1 1 0 0 0 0 1 1 0 0 0 0 1 1 
SCALARS geom_link_id int 1
LOOKUP_TABLE default
-1 -1 -1 -1 -1 -1 -1 -1 -1 -1 -1 -1 -1 -1 16 18 -1 -1 17 15 -1 -1 -1 -1 19 20 -1 -1 -1 -1 24 25 


CELL_DATA 42
SCALARS GMDS_ID int 1
LOOKUP_TABLE default
0 1 2 3 4 6 7 8 9 10 11 12 13 14 16 17 18 19 21 23 25 26 27 28 29 30 36 37 38 39 40 41 42 43 44 45 46 47 48 49 50 51 

SCALARS geom_link_dim int 1
LOOKUP_TABLE default
0 0 0 0 0 0 0 0 0 0 0 0 0 0 0 0 0 0 0 0 0 0 0 0 0 0 0 0 0 0 0 0 0 0 0 0 0 0 0 0 0 0 

SCALARS geom_link_id int 1
LOOKUP_TABLE default
-1 0 -1 0 0 0 0 -1 0 0 0 -1 0 0 0 -1 -1 -1 0 0 0 0 0 0 0 0 -1 -1 -1 -1 -1 -1 -1 -1 -1 -1 -1 -1 -1 -1 -1 -1 

