# vtk DataFile Version 3.0
Generated by GMDS VTK Writer

ASCII
DATASET UNSTRUCTURED_GRID
POINTS 61 float
-5 -5 -5
-5 0 0
10 10 -5
10 -5 -5
-5 -5 10
-5 10 10
10 10 10
10 -5 10
-5 -8.88178419700125e-16 -5
-5 -8.88178419700125e-16 10
10 -8.88178419700125e-16 10
10 -8.88178419700125e-16 -5
5 -5 -5
5 -5 10
5 0 10
5 0 -5
5 10 10
5 10 -5
10 5 10
10 5 -5
5 5 -5
5 5 10
-5 5 -5
-5 5 10
10 5 5
5 5 5
5 10 5
10 10 5
10 0 5
5 0 5
10 -5 5
5 -5 5
-5 0 5
-5 -5 5
-5 5 5
-5 10 5
4.44089209850063e-16 -5 -5
0 0 -5
-4.44089209850063e-16 0 5
0 -5 5
0 0 10
4.44089209850063e-16 -5 10
0 5 -5
0 5 5
0 5 10
0 10 5
4.44089209850063e-16 10 10
-5 5 0
0 5 0
-2.22044604925031e-16 0 -4.44089209850063e-16
10 5 0
5 5 0
5 10 0
10 10 -4.44089209850063e-16
10 0 0
5 0 0
10 -5 -4.44089209850063e-16
5 -5 0
0 -5 0
-5 -5 -4.44089209850063e-16
0 10 0

CELLS 91 455
4 54 55 29 28 
4 7 10 14 13 
4 8 22 42 37 
4 39 38 40 41 
4 41 39 31 13 
4 4 33 39 41 
4 41 40 14 13 
4 19 20 17 2 
4 4 9 40 41 
4 27 26 16 6 
4 11 15 20 19 
4 40 38 29 14 
4 9 32 38 40 
4 3 11 15 12 
4 11 15 55 54 
4 26 25 21 16 
4 38 39 31 29 
4 32 33 39 38 
4 24 25 21 18 
4 18 21 16 6 
4 50 51 52 53 
4 36 37 15 12 
4 2 19 50 53 
4 0 8 37 36 
4 27 24 18 6 
4 24 25 26 27 
4 28 29 14 10 
4 29 25 21 14 
4 28 29 25 24 
4 30 28 10 7 
4 31 29 14 13 
4 30 31 13 7 
4 30 28 29 31 
4 2 17 52 53 
4 52 51 25 26 
4 33 32 9 4 
4 17 20 51 52 
4 50 51 25 24 
4 19 20 51 50 
4 1 47 48 49 
4 1 49 38 32 
4 32 34 23 9 
4 8 37 49 1 
4 49 48 43 38 
4 37 42 48 49 
4 22 42 48 47 
4 35 34 23 5 
4 47 48 43 34 
4 37 42 20 15 
4 32 34 43 38 
4 38 43 25 29 
4 23 34 43 44 
4 44 43 25 21 
4 9 23 44 40 
4 40 44 21 14 
4 38 43 44 40 
4 1 47 34 32 
4 34 35 45 43 
4 43 45 26 25 
4 8 22 47 1 
4 5 23 44 46 
4 5 35 45 46 
4 45 43 44 46 
4 15 20 51 55 
4 55 51 25 29 
4 11 19 50 54 
4 54 50 24 28 
4 54 55 51 50 
4 3 11 54 56 
4 12 15 55 57 
4 57 55 29 31 
4 3 12 57 56 
4 56 54 55 57 
4 36 37 49 58 
4 58 49 38 39 
4 15 37 49 55 
4 55 49 38 29 
4 12 36 58 57 
4 57 58 39 31 
4 58 49 55 57 
4 0 8 1 59 
4 59 1 32 33 
4 0 36 58 59 
4 59 58 39 33 
4 59 1 49 58 
4 20 42 48 51 
4 51 48 43 25 
4 49 48 51 55 
4 48 60 45 43 
4 52 60 45 26 
4 60 48 51 52 

CELL_TYPES 91
9 
9 
9 
9 
9 
9 
9 
9 
9 
9 
9 
9 
9 
9 
9 
9 
9 
9 
9 
9 
9 
9 
9 
9 
9 
9 
9 
9 
9 
9 
9 
9 
9 
9 
9 
9 
9 
9 
9 
9 
9 
9 
9 
9 
9 
9 
9 
9 
9 
9 
9 
9 
9 
9 
9 
9 
9 
9 
9 
9 
9 
9 
9 
9 
9 
9 
9 
9 
9 
9 
9 
9 
9 
9 
9 
9 
9 
9 
9 
9 
9 
9 
9 
9 
9 
9 
9 
9 
9 
9 
9 
POINT_DATA 61
SCALARS GMDS_ID int 1
LOOKUP_TABLE default
0 1 2 3 4 5 6 7 8 9 10 11 12 13 14 15 16 17 18 19 20 21 22 23 24 25 26 27 28 29 30 31 32 33 34 35 36 37 38 39 40 41 42 43 44 46 47 48 49 50 51 52 53 54 55 56 57 58 59 60 61 
SCALARS geom_link_dim int 1
LOOKUP_TABLE default
0 1 0 0 0 0 0 0 0 0 0 0 0 0 1 1 0 0 0 0 1 1 0 0 1 1 1 0 1 1 0 1 1 0 1 0 0 1 0 1 1 0 1 1 1 1 0 1 1 0 1 1 1 0 1 1 0 1 1 0 1 
SCALARS geom_link_id int 1
LOOKUP_TABLE default
-1 11 -1 -1 -1 -1 -1 -1 -1 -1 -1 -1 -1 -1 24 25 -1 -1 -1 -1 17 15 -1 -1 22 8 7 -1 30 23 -1 32 13 -1 6 -1 -1 19 0 27 20 -1 18 2 16 3 -1 5 1 0 21 10 9 -1 29 26 -1 31 28 -1 4 


CELL_DATA 91
SCALARS GMDS_ID int 1
LOOKUP_TABLE default
0 1 3 4 5 6 8 9 10 11 12 13 14 17 18 21 22 23 25 27 29 32 33 35 36 37 39 41 44 46 48 50 51 52 53 55 56 57 58 59 60 62 63 64 65 66 67 68 69 72 73 75 76 77 78 79 80 82 83 84 87 89 91 92 93 94 95 96 97 99 100 101 103 104 105 106 107 108 109 110 111 112 113 114 115 116 117 118 120 122 123 

SCALARS geom_link_dim int 1
LOOKUP_TABLE default
0 0 0 0 0 0 0 0 0 0 0 0 0 0 0 0 0 0 0 0 0 0 0 0 0 0 0 0 0 0 0 0 0 0 0 0 0 0 0 0 0 0 0 0 0 0 0 0 0 0 0 0 0 0 0 0 0 0 0 0 0 0 0 0 0 0 0 0 0 0 0 0 0 0 0 0 0 0 0 0 0 0 0 0 0 0 0 0 0 0 0 

SCALARS geom_link_id int 1
LOOKUP_TABLE default
0 0 0 0 0 0 0 0 0 0 0 0 0 0 0 0 0 0 0 0 0 0 0 0 0 0 0 0 0 0 0 0 0 0 0 0 0 0 0 0 0 0 0 0 0 0 0 0 0 0 0 0 0 0 0 0 0 0 0 0 0 0 0 0 0 0 0 0 0 0 0 0 0 0 0 0 0 0 0 0 0 0 0 0 0 0 0 0 0 0 0 

