# vtk DataFile Version 3.0
Generated by GMDS VTK Writer

ASCII
DATASET UNSTRUCTURED_GRID
POINTS 38 float
5 -5 0
5 -5 10
10 5 -5
5 5 10
5 5 -5
-5 5 10
5 5 0
10 5 0
-5 5 0
5 10 0
0 5 -5
0 5 0
0 -5 0
0 5 10
8.88178419700125e-16 -5 10
0 10 0
10 0 0
5 0 0
5 0 10
0 0 -5
0 0 0
5 0 -5
-5 0 0
10 -4.44089209850063e-16 -5
-5 -4.44089209850063e-16 10
0 0 10
10 0 5
5 0 5
5 5 5
10 5 5
5 -5 5
-5 5 5
0 5 5
0 10 5
5 10 5
0 -5 5
0 0 5
-5 0 5

CELLS 48 240
4 0 12 20 17 
4 19 20 11 10 
4 30 27 17 0 
4 1 18 27 30 
4 2 4 6 7 
4 26 27 28 29 
4 29 26 16 7 
4 10 11 6 4 
4 29 28 6 7 
4 28 27 17 6 
4 17 16 7 6 
4 3 18 27 28 
4 27 26 16 17 
4 11 15 9 6 
4 17 20 11 6 
4 17 21 4 6 
4 21 19 10 4 
4 19 20 17 21 
4 22 20 11 8 
4 23 21 4 2 
4 23 16 7 2 
4 23 21 17 16 
4 24 25 13 5 
4 1 14 25 18 
4 18 25 13 3 
4 5 13 32 31 
4 31 32 11 8 
4 32 33 15 11 
4 3 13 32 28 
4 28 32 11 6 
4 34 28 6 9 
4 34 33 15 9 
4 33 32 28 34 
4 14 25 36 35 
4 35 36 20 12 
4 24 25 36 37 
4 37 36 20 22 
4 13 25 36 32 
4 32 36 20 11 
4 5 24 37 31 
4 31 37 22 8 
4 37 36 32 31 
4 1 14 35 30 
4 30 35 12 0 
4 18 25 36 27 
4 27 36 20 17 
4 30 35 36 27 
4 27 36 32 28 

CELL_TYPES 48
9 
9 
9 
9 
9 
9 
9 
9 
9 
9 
9 
9 
9 
9 
9 
9 
9 
9 
9 
9 
9 
9 
9 
9 
9 
9 
9 
9 
9 
9 
9 
9 
9 
9 
9 
9 
9 
9 
9 
9 
9 
9 
9 
9 
9 
9 
9 
9 
POINT_DATA 38
SCALARS GMDS_ID int 1
LOOKUP_TABLE default
2 10 12 14 15 16 18 19 21 22 25 26 27 28 29 31 33 34 35 37 38 39 41 42 43 44 45 46 47 48 50 52 53 54 55 57 58 59 
SCALARS geom_link_dim_0 int 1
LOOKUP_TABLE default
0 0 0 0 0 0 0 0 0 0 0 0 0 0 0 0 0 0 0 0 0 0 0 0 0 0 0 0 0 0 0 0 0 0 0 0 0 0 
SCALARS geom_link_id_0 int 1
LOOKUP_TABLE default
0 0 0 0 0 0 0 0 0 0 0 0 0 0 0 0 0 0 0 0 0 0 0 0 0 0 0 0 0 0 0 0 0 0 0 0 0 0 


CELL_DATA 48
SCALARS GMDS_ID int 1
LOOKUP_TABLE default
1 3 8 10 14 16 17 19 26 30 35 40 41 48 57 59 61 62 66 71 73 74 80 82 83 86 87 89 93 94 96 98 99 102 103 104 105 109 110 111 112 113 114 115 116 117 118 119 

SCALARS geom_link_dim_0 int 1
LOOKUP_TABLE default
0 0 0 0 0 0 0 0 0 0 0 0 0 0 0 0 0 0 0 0 0 0 0 0 0 0 0 0 0 0 0 0 0 0 0 0 0 0 0 0 0 0 0 0 0 0 0 0 

SCALARS geom_link_id_0 int 1
LOOKUP_TABLE default
0 0 0 0 0 0 0 0 0 0 0 0 0 0 0 0 0 0 0 0 0 0 0 0 0 0 0 0 0 0 0 0 0 0 0 0 0 0 0 0 0 0 0 0 0 0 0 0 

