# vtk DataFile Version 3.0
Generated by GMDS VTK Writer

ASCII
DATASET UNSTRUCTURED_GRID
POINTS 45 float
-5 -5 -5
-5 10 -5
5 -5 0
10 -5 -5
-5 -5 10
-5 10 10
10 -5 -8.88178419700125e-16
10 -5 10
5 10 -5
5 -5 -5
5 -5 10
5 10 10
10 5 -5
10 5 10
5 5 10
5 5 -5
-5 5 10
-5 5 -5
5 5 0
10 5 0
-5 -5 -8.88178419700125e-16
-5 5 0
5 10 0
-5 10 -8.88178419700125e-16
8.88178419700125e-16 -5 -5
0 5 -5
0 5 0
0 -5 0
0 5 10
8.88178419700125e-16 -5 10
8.88178419700125e-16 10 -5
0 10 0
8.88178419700125e-16 10 10
10 0 0
5 0 0
5 0 10
10 -4.44089209850063e-16 10
0 0 -5
0 0 0
5 0 -5
-5 -4.44089209850063e-16 -5
-5 0 0
10 -4.44089209850063e-16 -5
-5 -4.44089209850063e-16 10
0 0 10

CELLS 68 340
4 6 2 10 7 
4 2 27 38 34 
4 37 38 26 25 
4 16 21 26 28 
4 24 27 2 9 
4 19 18 14 13 
4 0 20 27 24 
4 12 15 18 19 
4 3 9 2 6 
4 25 26 18 15 
4 24 27 38 37 
4 33 34 35 36 
4 17 21 26 25 
4 33 36 13 19 
4 6 7 36 33 
4 36 35 14 13 
4 7 10 35 36 
4 34 35 14 18 
4 8 15 18 22 
4 22 18 14 11 
4 2 10 35 34 
4 34 33 19 18 
4 1 17 21 23 
4 23 21 16 5 
4 2 6 33 34 
4 28 26 18 14 
4 4 20 27 29 
4 29 27 2 10 
4 1 17 25 30 
4 30 25 15 8 
4 21 23 31 26 
4 26 31 22 18 
4 1 23 31 30 
4 30 31 22 8 
4 30 25 26 31 
4 5 16 28 32 
4 32 28 14 11 
4 5 23 31 32 
4 32 31 22 11 
4 31 26 28 32 
4 34 38 26 18 
4 2 9 39 34 
4 34 39 15 18 
4 9 24 37 39 
4 39 37 25 15 
4 37 38 34 39 
4 0 20 41 40 
4 40 41 21 17 
4 20 27 38 41 
4 41 38 26 21 
4 0 24 37 40 
4 40 37 25 17 
4 40 41 38 37 
4 3 9 39 42 
4 42 39 15 12 
4 3 6 33 42 
4 42 33 19 12 
4 42 39 34 33 
4 4 20 41 43 
4 43 41 21 16 
4 27 29 44 38 
4 38 44 28 26 
4 4 29 44 43 
4 43 44 28 16 
4 43 41 38 44 
4 10 29 44 35 
4 35 44 28 14 
4 44 38 34 35 

CELL_TYPES 68
9 
9 
9 
9 
9 
9 
9 
9 
9 
9 
9 
9 
9 
9 
9 
9 
9 
9 
9 
9 
9 
9 
9 
9 
9 
9 
9 
9 
9 
9 
9 
9 
9 
9 
9 
9 
9 
9 
9 
9 
9 
9 
9 
9 
9 
9 
9 
9 
9 
9 
9 
9 
9 
9 
9 
9 
9 
9 
9 
9 
9 
9 
9 
9 
9 
9 
9 
9 
POINT_DATA 45
SCALARS GMDS_ID int 1
LOOKUP_TABLE default
0 1 2 3 4 5 6 7 8 9 10 11 12 13 14 15 16 17 18 19 20 21 22 23 24 25 26 27 28 29 30 31 32 33 34 35 36 37 38 39 40 41 42 43 44 
SCALARS geom_link_dim_0 int 1
LOOKUP_TABLE default
0 0 0 0 0 0 0 0 0 0 0 0 0 0 0 0 0 0 0 0 0 0 0 0 0 0 0 0 0 0 0 0 0 0 0 0 0 0 0 0 0 0 0 0 0 
SCALARS geom_link_id_0 int 1
LOOKUP_TABLE default
0 0 0 0 0 0 0 0 0 0 0 0 0 0 0 0 0 0 0 0 0 0 0 0 0 0 0 0 0 0 0 0 0 0 0 0 0 0 0 0 0 0 0 0 0 


CELL_DATA 68
SCALARS GMDS_ID int 1
LOOKUP_TABLE default
0 1 3 5 9 11 13 14 18 19 20 21 22 24 25 27 28 31 32 33 34 35 36 37 38 39 42 43 45 46 47 48 49 50 51 52 53 54 55 56 57 58 59 60 61 62 63 64 65 66 67 68 69 70 71 72 73 74 75 76 77 78 79 80 81 82 83 84 

SCALARS geom_link_dim_0 int 1
LOOKUP_TABLE default
0 0 0 0 0 0 0 0 0 0 0 0 0 0 0 0 0 0 0 0 0 0 0 0 0 0 0 0 0 0 0 0 0 0 0 0 0 0 0 0 0 0 0 0 0 0 0 0 0 0 0 0 0 0 0 0 0 0 0 0 0 0 0 0 0 0 0 0 

SCALARS geom_link_id_0 int 1
LOOKUP_TABLE default
0 0 0 0 0 0 0 0 0 0 0 0 0 0 0 0 0 0 0 0 0 0 0 0 0 0 0 0 0 0 0 0 0 0 0 0 0 0 0 0 0 0 0 0 0 0 0 0 0 0 0 0 0 0 0 0 0 0 0 0 0 0 0 0 0 0 0 0 

