# vtk DataFile Version 3.0
Generated by GMDS VTK Writer

ASCII
DATASET UNSTRUCTURED_GRID
POINTS 38 float
10 10 10
10 -5 10
8.88178419700125e-16 -5 -5
8.88178419700125e-16 -5 10
8.88178419700125e-16 10 10
10 5 -5
10 5 10
0 5 10
0 5 -5
-5 5 10
-5 5 -5
5 5 -5
5 5 10
5 10 10
5 -5 -5
5 -5 10
0 0 -5
0 0 10
-5 -4.44089209850063e-16 10
-5 -4.44089209850063e-16 -5
10 -4.44089209850063e-16 -5
10 -4.44089209850063e-16 10
5 0 10
5 0 -5
0 -5 0
0 0 0
-5 0 0
10 10 -8.88178419700125e-16
10 5 0
5 5 0
5 10 0
-5 5 0
0 5 0
0 10 0
10 -5 -8.88178419700125e-16
5 -5 0
5 0 0
10 0 0

CELLS 51 255
4 13 12 7 4 
4 0 6 12 13 
4 18 17 7 9 
4 25 26 18 17 
4 16 19 26 25 
4 24 25 17 3 
4 2 16 25 24 
4 19 16 8 10 
4 1 15 22 21 
4 21 22 12 6 
4 20 23 11 5 
4 3 15 22 17 
4 17 22 12 7 
4 2 14 23 16 
4 16 23 11 8 
4 27 28 6 0 
4 5 11 29 28 
4 28 29 12 6 
4 29 30 13 12 
4 27 30 13 0 
4 27 28 29 30 
4 8 10 31 32 
4 32 31 9 7 
4 33 32 7 4 
4 8 11 29 32 
4 32 29 12 7 
4 33 30 13 4 
4 30 29 32 33 
4 8 16 25 32 
4 32 25 17 7 
4 10 19 26 31 
4 31 26 18 9 
4 26 25 32 31 
4 34 35 15 1 
4 14 23 36 35 
4 35 36 22 15 
4 20 23 36 37 
4 37 36 22 21 
4 34 37 21 1 
4 34 35 36 37 
4 11 23 36 29 
4 29 36 22 12 
4 5 20 37 28 
4 28 37 21 6 
4 37 36 29 28 
4 2 14 35 24 
4 24 35 15 3 
4 16 23 36 25 
4 25 36 22 17 
4 24 35 36 25 
4 25 36 29 32 

CELL_TYPES 51
9 
9 
9 
9 
9 
9 
9 
9 
9 
9 
9 
9 
9 
9 
9 
9 
9 
9 
9 
9 
9 
9 
9 
9 
9 
9 
9 
9 
9 
9 
9 
9 
9 
9 
9 
9 
9 
9 
9 
9 
9 
9 
9 
9 
9 
9 
9 
9 
9 
9 
9 
POINT_DATA 38
SCALARS GMDS_ID int 1
LOOKUP_TABLE default
6 7 9 10 11 12 13 14 15 16 17 18 19 20 22 23 24 25 26 27 28 29 30 31 33 34 35 36 37 38 39 40 41 42 44 45 46 47 
SCALARS geom_link_dim int 1
LOOKUP_TABLE default
0 0 0 0 0 0 0 1 1 0 0 1 1 0 0 0 1 1 0 0 0 0 1 1 1 1 1 0 1 1 1 1 1 1 0 1 1 1 
SCALARS geom_link_id int 1
LOOKUP_TABLE default
-1 -1 -1 -1 -1 -1 -1 16 18 -1 -1 17 15 -1 -1 -1 19 20 -1 -1 -1 -1 24 25 28 12 11 -1 21 10 9 5 1 4 -1 31 26 29 


CELL_DATA 51
SCALARS GMDS_ID int 1
LOOKUP_TABLE default
7 10 12 24 31 32 33 36 40 41 45 47 48 49 50 52 53 54 56 58 59 60 61 63 69 70 72 73 74 75 76 77 78 80 81 82 83 84 86 87 88 89 90 91 92 93 94 95 96 97 98 

SCALARS geom_link_dim int 1
LOOKUP_TABLE default
0 0 0 0 0 0 0 0 0 0 0 0 0 0 0 0 0 0 0 0 0 0 0 0 0 0 0 0 0 0 0 0 0 0 0 0 0 0 0 0 0 0 0 0 0 0 0 0 0 0 0 

SCALARS geom_link_id int 1
LOOKUP_TABLE default
0 0 0 0 0 0 0 0 0 0 0 0 0 0 0 0 0 0 0 0 0 0 0 0 0 0 0 0 0 0 0 0 0 0 0 0 0 0 0 0 0 0 0 0 0 0 0 0 0 0 0 

