# vtk DataFile Version 3.0
Generated by GMDS VTK Writer

ASCII
DATASET UNSTRUCTURED_GRID
POINTS 38 float
5 -5 0
5 10 0
0 0 5
5 0 5
5 0 10
0 0 10
8.88178419700125e-16 10 -5
8.88178419700125e-16 -5 -5
10 10 -8.88178419700125e-16
0 -5 0
0 10 0
5 10 -5
5 -5 -5
5 10 5
5 -5 5
0 -5 5
0 10 5
10 10 5
5 0 0
0 0 0
10 0 0
5 0 -5
0 0 -5
10 0 5
-5 0 0
-5 0 5
5 5 0
0 5 0
0 5 5
5 5 5
0 5 10
5 5 10
10 5 0
5 5 -5
0 5 -5
10 5 5
-5 5 0
-5 5 5

CELLS 48 240
4 1 10 16 13 
4 29 28 30 31 
4 3 4 31 29 
4 18 19 2 3 
4 0 14 3 18 
4 4 5 30 31 
4 0 9 15 14 
4 2 5 30 28 
4 9 15 2 19 
4 26 27 28 29 
4 0 9 19 18 
4 29 26 1 13 
4 3 2 5 4 
4 3 18 26 29 
4 12 0 9 7 
4 11 1 10 6 
4 28 29 13 16 
4 2 3 29 28 
4 28 27 10 16 
4 1 8 17 13 
4 2 19 27 28 
4 26 27 10 1 
4 14 15 2 3 
4 18 19 27 26 
4 0 12 21 18 
4 7 9 19 22 
4 7 12 21 22 
4 21 18 19 22 
4 18 20 23 3 
4 19 24 25 2 
4 18 20 32 26 
4 26 32 8 1 
4 18 21 33 26 
4 26 33 11 1 
4 19 22 34 27 
4 27 34 6 10 
4 21 22 34 33 
4 33 34 6 11 
4 33 26 27 34 
4 20 23 35 32 
4 32 35 17 8 
4 3 23 35 29 
4 29 35 17 13 
4 26 32 35 29 
4 19 24 36 27 
4 24 25 37 36 
4 2 25 37 28 
4 27 36 37 28 

CELL_TYPES 48
9 
9 
9 
9 
9 
9 
9 
9 
9 
9 
9 
9 
9 
9 
9 
9 
9 
9 
9 
9 
9 
9 
9 
9 
9 
9 
9 
9 
9 
9 
9 
9 
9 
9 
9 
9 
9 
9 
9 
9 
9 
9 
9 
9 
9 
9 
9 
9 
POINT_DATA 38
SCALARS GMDS_ID int 1
LOOKUP_TABLE default
0 1 4 5 6 7 8 9 12 14 15 20 21 22 23 24 25 26 30 31 33 34 35 36 37 38 39 40 41 42 43 44 46 47 48 49 50 51 
SCALARS geom_link_dim int 1
LOOKUP_TABLE default
1 1 1 1 1 1 0 0 0 1 1 0 0 1 1 1 1 0 1 1 1 1 1 1 1 1 1 1 1 1 1 1 1 1 1 1 1 1 
SCALARS geom_link_id int 1
LOOKUP_TABLE default
31 9 14 23 24 20 -1 -1 -1 28 4 -1 -1 7 32 27 3 -1 26 12 29 25 19 30 11 13 10 1 2 8 16 15 21 17 18 22 5 6 


CELL_DATA 48
SCALARS GMDS_ID int 1
LOOKUP_TABLE default
0 3 6 8 12 15 17 19 20 22 23 24 25 26 28 30 31 33 34 38 40 43 46 47 50 55 57 59 64 71 72 73 74 75 79 80 81 82 83 84 85 86 87 88 89 91 93 95 

SCALARS geom_link_dim int 1
LOOKUP_TABLE default
0 0 0 0 0 0 0 0 0 0 0 0 0 0 0 0 0 0 0 0 0 0 0 0 0 0 0 0 0 0 0 0 0 0 0 0 0 0 0 0 0 0 0 0 0 0 0 0 

SCALARS geom_link_id int 1
LOOKUP_TABLE default
0 0 0 0 0 0 0 0 0 0 0 0 0 0 0 0 0 0 0 0 0 0 0 0 0 0 0 0 0 0 0 0 0 0 0 0 0 0 0 0 0 0 0 0 0 0 0 0 

