# vtk DataFile Version 3.0
Generated by GMDS VTK Writer

ASCII
DATASET UNSTRUCTURED_GRID
POINTS 30 float
-5 -5 -5
-5 10 -5
10 -4.44089209850063e-16 10
10 -5 -5
-5 -5 10
-5 10 10
10 -4.44089209850063e-16 -5
10 -5 10
-5 5 -5
-5 5 10
10 5 10
10 5 -5
5 -5 -5
5 -5 10
5 5 10
5 5 -5
5 10 10
5 10 -5
0 -5 -5
0 -5 10
0 5 10
0 5 -5
0 10 10
0 10 -5
5 0 10
5 0 -5
0 0 -5
0 0 10
-5 -4.44089209850063e-16 10
-5 -4.44089209850063e-16 -5

CELLS 38 190
4 26 27 20 21 
4 18 19 27 26 
4 20 21 8 9 
4 3 7 13 12 
4 8 9 5 1 
4 14 15 21 20 
4 2 24 14 10 
4 18 19 4 0 
4 12 13 19 18 
4 10 11 15 14 
4 6 2 24 25 
4 6 25 15 11 
4 7 13 24 2 
4 3 12 25 6 
4 6 2 10 11 
4 25 24 14 15 
4 3 7 2 6 
4 12 13 24 25 
4 15 14 16 17 
4 14 16 22 20 
4 20 22 5 9 
4 16 17 23 22 
4 22 23 1 5 
4 15 17 23 21 
4 21 23 1 8 
4 21 20 22 23 
4 4 19 27 28 
4 28 27 20 9 
4 0 4 28 29 
4 29 28 9 8 
4 0 18 26 29 
4 29 26 21 8 
4 26 27 28 29 
4 13 19 27 24 
4 24 27 20 14 
4 12 18 26 25 
4 25 26 21 15 
4 25 24 27 26 

CELL_TYPES 38
9 
9 
9 
9 
9 
9 
9 
9 
9 
9 
9 
9 
9 
9 
9 
9 
9 
9 
9 
9 
9 
9 
9 
9 
9 
9 
9 
9 
9 
9 
9 
9 
9 
9 
9 
9 
9 
9 
POINT_DATA 30
SCALARS GMDS_ID int 1
LOOKUP_TABLE default
0 1 2 3 4 5 6 7 8 9 10 11 12 13 14 15 16 17 18 19 20 21 22 23 24 25 26 27 28 29 
SCALARS geom_link_dim_0 int 1
LOOKUP_TABLE default
0 0 0 0 0 0 0 0 0 0 0 0 0 0 0 0 0 0 0 0 0 0 0 0 0 0 0 0 0 0 
SCALARS geom_link_id_0 int 1
LOOKUP_TABLE default
0 0 0 0 0 0 0 0 0 0 0 0 0 0 0 0 0 0 0 0 0 0 0 0 0 0 0 0 0 0 


CELL_DATA 38
SCALARS GMDS_ID int 1
LOOKUP_TABLE default
0 3 4 5 7 8 11 13 14 15 16 18 20 21 22 23 24 25 26 29 30 31 32 33 34 35 36 37 38 39 40 41 42 43 44 45 46 47 

SCALARS geom_link_dim_0 int 1
LOOKUP_TABLE default
0 0 0 0 0 0 0 0 0 0 0 0 0 0 0 0 0 0 0 0 0 0 0 0 0 0 0 0 0 0 0 0 0 0 0 0 0 0 

SCALARS geom_link_id_0 int 1
LOOKUP_TABLE default
0 0 0 0 0 0 0 0 0 0 0 0 0 0 0 0 0 0 0 0 0 0 0 0 0 0 0 0 0 0 0 0 0 0 0 0 0 0 

