# vtk DataFile Version 3.0
Generated by GMDS VTK Writer

ASCII
DATASET UNSTRUCTURED_GRID
POINTS 16 float
10 10 -5
10 -5 -5
-5 -5 10
-5 10 10
10 10 10
10 -5 10
8.88178419700125e-16 10 -5
8.88178419700125e-16 -5 -5
8.88178419700125e-16 -5 10
8.88178419700125e-16 10 10
10 10 -8.88178419700125e-16
10 -5 -8.88178419700125e-16
0 -5 0
0 10 0
-5 -5 -8.88178419700125e-16
-5 10 -8.88178419700125e-16

CELLS 16 80
4 11 12 8 5 
4 1 7 12 11 
4 10 11 5 4 
4 0 1 11 10 
4 0 1 7 6 
4 4 5 8 9 
4 9 8 2 3 
4 6 7 12 13 
4 13 12 8 9 
4 0 6 13 10 
4 10 13 9 4 
4 10 11 12 13 
4 14 12 8 2 
4 14 15 3 2 
4 15 13 9 3 
4 13 12 14 15 

CELL_TYPES 16
9 
9 
9 
9 
9 
9 
9 
9 
9 
9 
9 
9 
9 
9 
9 
9 
POINT_DATA 16
SCALARS GMDS_ID int 1
LOOKUP_TABLE default
2 3 4 5 6 7 8 9 10 11 12 13 14 15 16 17 
SCALARS geom_link_dim int 1
LOOKUP_TABLE default
0 0 0 0 0 0 0 0 0 0 0 0 1 1 0 0 
SCALARS geom_link_id int 1
LOOKUP_TABLE default
-1 -1 -1 -1 -1 -1 -1 -1 -1 -1 -1 -1 28 4 -1 -1 


CELL_DATA 16
SCALARS GMDS_ID int 1
LOOKUP_TABLE default
0 2 4 5 6 10 11 15 16 17 18 19 21 23 25 26 

SCALARS geom_link_dim int 1
LOOKUP_TABLE default
0 0 0 0 0 0 0 0 0 0 0 0 0 0 0 0 

SCALARS geom_link_id int 1
LOOKUP_TABLE default
0 0 0 0 0 0 0 0 0 0 0 0 0 0 0 0 

