# vtk DataFile Version 3.0
Generated by GMDS VTK Writer

ASCII
DATASET UNSTRUCTURED_GRID
POINTS 36 float
-5 -5 -5
-5 10 -5
10 10 -5
10 -5 -5
-5 -5 10
-5 10 10
10 10 10
10 -5 10
-5 -8.88178419700125e-16 -5
-5 -8.88178419700125e-16 10
10 -8.88178419700125e-16 10
10 -8.88178419700125e-16 -5
5 -5 -5
5 -5 10
5 0 10
5 0 -5
5 10 10
5 10 -5
10 5 10
10 5 -5
5 5 -5
5 5 10
-5 5 -5
-5 5 10
10 5 5
5 5 5
5 10 5
10 10 5
10 0 5
5 0 5
10 -5 5
5 -5 5
-5 0 5
-5 -5 5
-5 5 5
-5 10 5

CELLS 52 260
4 13 14 9 4 
4 7 10 14 13 
4 10 14 21 18 
4 2 19 24 27 
4 19 20 17 2 
4 27 26 16 6 
4 11 15 20 19 
4 3 11 15 12 
4 12 15 8 0 
4 2 17 26 27 
4 26 25 21 16 
4 17 20 25 26 
4 24 25 21 18 
4 19 20 25 24 
4 18 21 16 6 
4 8 15 20 22 
4 22 20 17 1 
4 9 14 21 23 
4 23 21 16 5 
4 27 24 18 6 
4 24 25 26 27 
4 11 15 29 28 
4 28 29 14 10 
4 15 20 25 29 
4 29 25 21 14 
4 11 19 24 28 
4 28 24 18 10 
4 28 29 25 24 
4 3 11 28 30 
4 30 28 10 7 
4 12 15 29 31 
4 31 29 14 13 
4 3 12 31 30 
4 30 31 13 7 
4 30 28 29 31 
4 8 15 29 32 
4 32 29 14 9 
4 0 8 32 33 
4 33 32 9 4 
4 0 12 31 33 
4 33 31 13 4 
4 31 29 32 33 
4 20 22 34 25 
4 25 34 23 21 
4 8 22 34 32 
4 32 34 23 9 
4 32 29 25 34 
4 1 17 26 35 
4 35 26 16 5 
4 1 22 34 35 
4 35 34 23 5 
4 34 25 26 35 

CELL_TYPES 52
9 
9 
9 
9 
9 
9 
9 
9 
9 
9 
9 
9 
9 
9 
9 
9 
9 
9 
9 
9 
9 
9 
9 
9 
9 
9 
9 
9 
9 
9 
9 
9 
9 
9 
9 
9 
9 
9 
9 
9 
9 
9 
9 
9 
9 
9 
9 
9 
9 
9 
9 
9 
POINT_DATA 36
SCALARS GMDS_ID int 1
LOOKUP_TABLE default
0 1 2 3 4 5 6 7 8 9 10 11 12 13 14 15 16 17 18 19 20 21 22 23 24 25 26 27 28 29 30 31 32 33 34 35 
SCALARS geom_link_dim int 1
LOOKUP_TABLE default
0 0 0 0 0 0 0 0 0 0 0 0 0 0 1 1 0 0 0 0 1 1 0 0 1 0 1 0 1 0 0 1 1 0 1 0 
SCALARS geom_link_id int 1
LOOKUP_TABLE default
-1 -1 -1 -1 -1 -1 -1 -1 -1 -1 -1 -1 -1 -1 24 25 -1 -1 -1 -1 17 15 -1 -1 22 -1 7 -1 30 -1 -1 32 13 -1 6 -1 


CELL_DATA 52
SCALARS GMDS_ID int 1
LOOKUP_TABLE default
0 1 2 7 9 11 12 17 18 20 21 24 25 26 27 29 30 33 34 36 37 38 39 40 41 42 43 44 45 46 47 48 49 50 51 52 53 54 55 56 57 58 59 60 61 62 63 64 65 66 67 68 

SCALARS geom_link_dim int 1
LOOKUP_TABLE default
0 0 0 0 0 0 0 0 0 0 0 0 0 0 0 0 0 0 0 0 0 0 0 0 0 0 0 0 0 0 0 0 0 0 0 0 0 0 0 0 0 0 0 0 0 0 0 0 0 0 0 0 

SCALARS geom_link_id int 1
LOOKUP_TABLE default
0 0 0 -1 0 -1 0 0 0 -1 -1 -1 -1 -1 0 0 0 0 0 -1 -1 -1 -1 -1 -1 -1 -1 -1 -1 -1 -1 -1 -1 -1 -1 -1 -1 -1 -1 -1 -1 -1 -1 -1 -1 -1 -1 -1 -1 -1 -1 -1 

