# vtk DataFile Version 3.0
Generated by GMDS VTK Writer

ASCII
DATASET UNSTRUCTURED_GRID
POINTS 63 float
-5 10 -5
10 10 -5
10 -5 -5
-5 -5 10
-5 10 10
10 10 10
10 -5 10
-5 -8.88178419700125e-16 -5
-5 -8.88178419700125e-16 10
10 -8.88178419700125e-16 10
10 -8.88178419700125e-16 -5
-5 -5 -8.88178419700125e-16
10 -5 -8.88178419700125e-16
10 0 0
-5 0 0
10 10 -8.88178419700125e-16
-5 10 -8.88178419700125e-16
-8.88178419700125e-16 -5 -5
0 0 -5
0 0 0
0 -5 0
0 0 10
-8.88178419700125e-16 -5 10
-8.88178419700125e-16 10 -5
0 10 0
-8.88178419700125e-16 10 10
-5 5 -5
-5 5 0
-4.44089209850063e-16 5 0
0 5 -5
10 5 0
10 5 -5
-5 5 10
0 5 10
10 5 10
0 -5 5
0 0 5
10 0 5
10 -5 5
10 5 5
-2.22044604925031e-16 5 5
-5 -5 5
-5 0 5
10 10 5
0 10 5
-5 5 5
-5 10 5
5 5 -5
5 5 0
5 0 0
5 0 -5
5 10 -5
5 10 0
5 5 5
5 0 5
5 -5 -5
5 -5 0
5 -5 5
5 -5 10
5 0 10
5 5 10
5 10 5
5 10 10

CELLS 103 515
4 28 40 53 48 
4 2 10 13 12 
4 1 15 30 31 
4 11 14 19 20 
4 26 27 28 29 
4 7 14 19 18 
4 26 29 18 7 
4 0 23 29 26 
4 29 28 19 18 
4 23 24 28 29 
4 51 52 48 47 
4 27 28 19 14 
4 19 28 40 36 
4 16 24 28 27 
4 26 27 14 7 
4 0 16 27 26 
4 17 18 19 20 
4 51 47 31 1 
4 23 29 47 51 
4 3 8 21 22 
4 52 48 30 15 
4 24 28 48 52 
4 51 52 15 1 
4 38 37 9 6 
4 12 13 37 38 
4 0 16 24 23 
4 36 35 22 21 
4 23 24 52 51 
4 47 48 49 50 
4 19 20 35 36 
4 31 30 13 10 
4 50 47 31 10 
4 18 29 47 50 
4 50 49 13 10 
4 18 19 49 50 
4 4 25 33 32 
4 32 33 21 8 
4 49 48 30 13 
4 19 28 48 49 
4 48 47 31 30 
4 28 29 47 48 
4 36 40 33 21 
4 13 30 39 37 
4 37 39 34 9 
4 11 14 42 41 
4 41 42 8 3 
4 14 19 36 42 
4 42 36 21 8 
4 11 20 35 41 
4 41 35 22 3 
4 41 42 36 35 
4 24 28 40 44 
4 44 40 33 25 
4 15 30 39 43 
4 43 39 34 5 
4 27 28 40 45 
4 45 40 33 32 
4 14 27 45 42 
4 42 45 32 8 
4 45 40 36 42 
4 16 24 44 46 
4 46 44 25 4 
4 16 27 45 46 
4 46 45 32 4 
4 46 44 40 45 
4 48 53 39 30 
4 36 40 53 54 
4 54 53 39 37 
4 19 36 54 49 
4 49 54 37 13 
4 49 48 53 54 
4 17 18 50 55 
4 55 50 10 2 
4 19 20 56 49 
4 49 56 12 13 
4 17 20 56 55 
4 55 56 12 2 
4 55 50 49 56 
4 35 36 54 57 
4 57 54 37 38 
4 58 57 38 6 
4 59 58 6 9 
4 21 36 54 59 
4 59 54 37 9 
4 54 57 58 59 
4 20 35 57 56 
4 56 57 38 12 
4 49 56 57 54 
4 33 40 53 60 
4 60 53 39 34 
4 21 33 60 59 
4 59 60 34 9 
4 54 53 60 59 
4 40 44 61 53 
4 53 61 43 39 
4 24 44 61 52 
4 52 61 43 15 
4 52 48 53 61 
4 25 33 60 62 
4 62 60 34 5 
4 25 44 61 62 
4 62 61 43 5 
4 61 53 60 62 

CELL_TYPES 103
9 
9 
9 
9 
9 
9 
9 
9 
9 
9 
9 
9 
9 
9 
9 
9 
9 
9 
9 
9 
9 
9 
9 
9 
9 
9 
9 
9 
9 
9 
9 
9 
9 
9 
9 
9 
9 
9 
9 
9 
9 
9 
9 
9 
9 
9 
9 
9 
9 
9 
9 
9 
9 
9 
9 
9 
9 
9 
9 
9 
9 
9 
9 
9 
9 
9 
9 
9 
9 
9 
9 
9 
9 
9 
9 
9 
9 
9 
9 
9 
9 
9 
9 
9 
9 
9 
9 
9 
9 
9 
9 
9 
9 
9 
9 
9 
9 
9 
9 
9 
9 
9 
9 
POINT_DATA 63
SCALARS GMDS_ID int 1
LOOKUP_TABLE default
1 2 3 4 5 6 7 8 9 10 11 12 13 14 15 16 17 18 19 20 21 22 23 24 25 26 27 28 29 30 31 32 33 34 35 36 37 38 39 40 41 42 43 44 45 46 47 48 49 50 51 52 53 54 55 56 57 58 59 60 61 62 63 
SCALARS geom_link_dim_0 int 1
LOOKUP_TABLE default
0 0 0 0 0 0 0 0 0 0 0 0 0 0 0 0 0 0 0 0 0 0 0 0 0 0 0 0 0 0 0 0 0 0 0 0 0 0 0 0 0 0 0 0 0 0 0 0 0 0 0 0 0 0 0 0 0 0 0 0 0 0 0 
SCALARS geom_link_id_0 int 1
LOOKUP_TABLE default
0 0 0 0 0 0 0 0 0 0 0 0 0 0 0 0 0 0 0 0 0 0 0 0 0 0 0 0 0 0 0 0 0 0 0 0 0 0 0 0 0 0 0 0 0 0 0 0 0 0 0 0 0 0 0 0 0 0 0 0 0 0 0 


CELL_DATA 103
SCALARS GMDS_ID int 1
LOOKUP_TABLE default
0 1 3 6 9 10 12 13 15 16 18 19 20 22 23 26 28 29 30 31 33 34 35 38 39 40 44 45 46 47 48 52 53 54 55 56 57 58 59 60 63 64 65 66 68 69 70 71 72 73 74 77 78 79 80 82 83 84 85 86 87 88 89 90 91 92 93 94 95 96 97 98 99 100 101 102 103 104 105 106 108 110 111 112 113 114 115 116 117 118 119 120 121 122 123 124 125 126 127 128 129 130 131 

SCALARS geom_link_dim_0 int 1
LOOKUP_TABLE default
0 0 0 0 0 0 0 0 0 0 0 0 0 0 0 0 0 0 0 0 0 0 0 0 0 0 0 0 0 0 0 0 0 0 0 0 0 0 0 0 0 0 0 0 0 0 0 0 0 0 0 0 0 0 0 0 0 0 0 0 0 0 0 0 0 0 0 0 0 0 0 0 0 0 0 0 0 0 0 0 0 0 0 0 0 0 0 0 0 0 0 0 0 0 0 0 0 0 0 0 0 0 0 

SCALARS geom_link_id_0 int 1
LOOKUP_TABLE default
0 0 0 0 0 0 0 0 0 0 0 0 0 0 0 0 0 0 0 0 0 0 0 0 0 0 0 0 0 0 0 0 0 0 0 0 0 0 0 0 0 0 0 0 0 0 0 0 0 0 0 0 0 0 0 0 0 0 0 0 0 0 0 0 0 0 0 0 0 0 0 0 0 0 0 0 0 0 0 0 0 0 0 0 0 0 0 0 0 0 0 0 0 0 0 0 0 0 0 0 0 0 0 

