# vtk DataFile Version 3.0
Generated by GMDS VTK Writer

ASCII
DATASET UNSTRUCTURED_GRID
POINTS 60 float
-5 -5 -5
-5 10 -5
5 -5 5
-5 -5 10
-5 10 10
10 10 10
10 -5 10
-5 -8.88178419700125e-16 -5
-5 -8.88178419700125e-16 10
10 -8.88178419700125e-16 10
-5 -5 -8.88178419700125e-16
10 -5 -8.88178419700125e-16
10 0 0
-5 0 0
10 10 -8.88178419700125e-16
-5 10 -8.88178419700125e-16
5 -5 -5
5 0 -5
5 0 0
5 -5 0
5 0 10
5 -5 10
5 10 -5
5 10 0
5 10 10
5 0 5
10 0 5
10 -5 5
-5 -5 5
-5 0 5
-5 10 5
5 10 5
10 10 5
-5 5 -5
-5 5 0
5 5 0
5 5 -5
5 5 5
-5 5 5
5 5 10
-5 5 10
10 5 0
10 5 5
10 5 10
0 -5 5
0 0 5
0 0 10
-4.44089209850063e-16 -5 10
0 -5 0
0 0 0
-4.44089209850063e-16 -5 -5
0 0 -5
0 5 -5
0 5 0
-4.44089209850063e-16 10 -5
0 10 0
0 10 5
0 5 5
-4.44089209850063e-16 10 10
0 5 10

CELLS 97 485
4 19 18 12 11 
4 28 29 8 3 
4 10 13 29 28 
4 2 25 26 27 
4 27 2 21 6 
4 0 7 13 10 
4 35 37 25 18 
4 11 19 2 27 
4 12 18 25 26 
4 23 31 37 35 
4 27 26 9 6 
4 11 12 26 27 
4 26 25 20 9 
4 16 17 18 19 
4 21 20 9 6 
4 36 35 18 17 
4 22 23 35 36 
4 10 28 44 48 
4 25 2 21 20 
4 49 45 25 18 
4 13 29 45 49 
4 18 19 2 25 
4 48 49 18 19 
4 10 13 49 48 
4 44 45 46 47 
4 33 34 13 7 
4 1 15 34 33 
4 47 44 2 21 
4 3 28 44 47 
4 47 46 20 21 
4 3 8 46 47 
4 46 45 25 20 
4 14 23 31 32 
4 32 31 24 5 
4 8 29 45 46 
4 44 45 25 2 
4 28 29 45 44 
4 15 30 38 34 
4 34 38 29 13 
4 24 31 37 39 
4 39 37 25 20 
4 4 30 38 40 
4 40 38 29 8 
4 14 23 35 41 
4 41 35 18 12 
4 31 32 42 37 
4 37 42 26 25 
4 14 32 42 41 
4 41 42 26 12 
4 41 35 37 42 
4 5 24 39 43 
4 43 39 20 9 
4 5 32 42 43 
4 43 42 26 9 
4 42 37 39 43 
4 48 49 45 44 
4 0 7 51 50 
4 50 51 17 16 
4 7 13 49 51 
4 51 49 18 17 
4 0 10 48 50 
4 50 48 19 16 
4 50 51 49 48 
4 33 34 53 52 
4 52 53 35 36 
4 13 34 53 49 
4 49 53 35 18 
4 7 33 52 51 
4 51 52 36 17 
4 52 53 49 51 
4 1 15 55 54 
4 54 55 23 22 
4 15 34 53 55 
4 55 53 35 23 
4 1 33 52 54 
4 54 52 36 22 
4 54 55 53 52 
4 15 30 56 55 
4 55 56 31 23 
4 30 38 57 56 
4 56 57 37 31 
4 34 38 57 53 
4 53 57 37 35 
4 55 56 57 53 
4 29 38 57 45 
4 45 57 37 25 
4 53 57 45 49 
4 4 30 56 58 
4 58 56 31 24 
4 38 40 59 57 
4 57 59 39 37 
4 4 40 59 58 
4 58 59 39 24 
4 58 56 57 59 
4 8 40 59 46 
4 46 59 39 20 
4 59 57 45 46 

CELL_TYPES 97
9 
9 
9 
9 
9 
9 
9 
9 
9 
9 
9 
9 
9 
9 
9 
9 
9 
9 
9 
9 
9 
9 
9 
9 
9 
9 
9 
9 
9 
9 
9 
9 
9 
9 
9 
9 
9 
9 
9 
9 
9 
9 
9 
9 
9 
9 
9 
9 
9 
9 
9 
9 
9 
9 
9 
9 
9 
9 
9 
9 
9 
9 
9 
9 
9 
9 
9 
9 
9 
9 
9 
9 
9 
9 
9 
9 
9 
9 
9 
9 
9 
9 
9 
9 
9 
9 
9 
9 
9 
9 
9 
9 
9 
9 
9 
9 
9 
POINT_DATA 60
SCALARS GMDS_ID int 1
LOOKUP_TABLE default
0 1 2 4 5 6 7 8 9 10 12 13 14 15 16 17 18 19 20 21 22 23 24 25 26 27 28 29 30 31 32 33 34 35 36 37 38 39 40 41 42 43 44 45 46 47 48 49 50 51 52 53 54 55 56 57 58 59 60 61 
SCALARS geom_link_dim_0 int 1
LOOKUP_TABLE default
0 0 0 0 0 0 0 0 0 0 0 0 0 0 0 0 0 0 0 0 0 0 0 0 0 0 0 0 0 0 0 0 0 0 0 0 0 0 0 0 0 0 0 0 0 0 0 0 0 0 0 0 0 0 0 0 0 0 0 0 
SCALARS geom_link_id_0 int 1
LOOKUP_TABLE default
0 0 0 0 0 0 0 0 0 0 0 0 0 0 0 0 0 0 0 0 0 0 0 0 0 0 0 0 0 0 0 0 0 0 0 0 0 0 0 0 0 0 0 0 0 0 0 0 0 0 0 0 0 0 0 0 0 0 0 0 


CELL_DATA 97
SCALARS GMDS_ID int 1
LOOKUP_TABLE default
4 12 13 15 16 17 18 19 20 21 22 23 26 28 32 33 34 36 37 38 39 41 42 43 44 46 47 49 50 53 54 55 56 57 58 59 60 62 63 65 66 69 70 72 73 74 75 76 77 78 79 80 81 82 83 84 85 86 87 88 89 90 91 92 93 94 95 96 97 98 99 100 101 102 103 104 105 106 107 108 109 110 111 112 113 114 115 116 117 118 119 120 121 122 123 124 125 

SCALARS geom_link_dim_0 int 1
LOOKUP_TABLE default
0 0 0 0 0 0 0 0 0 0 0 0 0 0 0 0 0 0 0 0 0 0 0 0 0 0 0 0 0 0 0 0 0 0 0 0 0 0 0 0 0 0 0 0 0 0 0 0 0 0 0 0 0 0 0 0 0 0 0 0 0 0 0 0 0 0 0 0 0 0 0 0 0 0 0 0 0 0 0 0 0 0 0 0 0 0 0 0 0 0 0 0 0 0 0 0 0 

SCALARS geom_link_id_0 int 1
LOOKUP_TABLE default
0 0 0 0 0 0 0 0 0 0 0 0 0 0 0 0 0 0 0 0 0 0 0 0 0 0 0 0 0 0 0 0 0 0 0 0 0 0 0 0 0 0 0 0 0 0 0 0 0 0 0 0 0 0 0 0 0 0 0 0 0 0 0 0 0 0 0 0 0 0 0 0 0 0 0 0 0 0 0 0 0 0 0 0 0 0 0 0 0 0 0 0 0 0 0 0 0 

