# vtk DataFile Version 3.0
Generated by GMDS VTK Writer

ASCII
DATASET UNSTRUCTURED_GRID
POINTS 44 float
-5 -5 -5
-5 10 -5
10 10 10
10 -5 10
8.88178419700125e-16 10 -5
8.88178419700125e-16 -5 -5
8.88178419700125e-16 -5 10
8.88178419700125e-16 10 10
10 5 -5
10 5 10
0 5 10
0 5 -5
-5 5 10
-5 5 -5
5 5 -5
5 5 10
5 10 10
5 10 -5
5 -5 -5
5 -5 10
0 0 -5
0 0 10
-5 -4.44089209850063e-16 10
-5 -4.44089209850063e-16 -5
10 -4.44089209850063e-16 -5
10 -4.44089209850063e-16 10
5 0 10
5 0 -5
-5 -5 -8.88178419700125e-16
0 -5 0
0 0 0
-5 0 0
10 10 -8.88178419700125e-16
10 5 0
5 5 0
5 10 0
-5 5 0
0 5 0
0 10 0
-5 10 -8.88178419700125e-16
10 -5 -8.88178419700125e-16
5 -5 0
5 0 0
10 0 0

CELLS 63 315
4 0 5 20 23 
4 16 15 10 7 
4 2 9 15 16 
4 22 21 10 12 
4 28 29 30 31 
4 0 23 31 28 
4 30 31 22 21 
4 13 11 4 1 
4 17 14 11 4 
4 20 23 31 30 
4 29 30 21 6 
4 5 20 30 29 
4 0 5 29 28 
4 23 20 11 13 
4 3 19 26 25 
4 25 26 15 9 
4 24 27 14 8 
4 6 19 26 21 
4 21 26 15 10 
4 5 18 27 20 
4 20 27 14 11 
4 32 33 9 2 
4 8 14 34 33 
4 33 34 15 9 
4 14 17 35 34 
4 34 35 16 15 
4 32 35 16 2 
4 32 33 34 35 
4 11 13 36 37 
4 37 36 12 10 
4 4 11 37 38 
4 38 37 10 7 
4 1 4 38 39 
4 1 13 36 39 
4 36 37 38 39 
4 11 14 34 37 
4 37 34 15 10 
4 4 17 35 38 
4 38 35 16 7 
4 35 34 37 38 
4 11 20 30 37 
4 37 30 21 10 
4 13 23 31 36 
4 36 31 22 12 
4 31 30 37 36 
4 40 41 19 3 
4 18 27 42 41 
4 41 42 26 19 
4 24 27 42 43 
4 43 42 26 25 
4 40 43 25 3 
4 40 41 42 43 
4 14 27 42 34 
4 34 42 26 15 
4 8 24 43 33 
4 33 43 25 9 
4 43 42 34 33 
4 5 18 41 29 
4 29 41 19 6 
4 20 27 42 30 
4 30 42 26 21 
4 29 41 42 30 
4 30 42 34 37 

CELL_TYPES 63
9 
9 
9 
9 
9 
9 
9 
9 
9 
9 
9 
9 
9 
9 
9 
9 
9 
9 
9 
9 
9 
9 
9 
9 
9 
9 
9 
9 
9 
9 
9 
9 
9 
9 
9 
9 
9 
9 
9 
9 
9 
9 
9 
9 
9 
9 
9 
9 
9 
9 
9 
9 
9 
9 
9 
9 
9 
9 
9 
9 
9 
9 
9 
POINT_DATA 44
SCALARS GMDS_ID int 1
LOOKUP_TABLE default
0 1 6 7 8 9 10 11 12 13 14 15 16 17 18 19 20 21 22 23 24 25 26 27 28 29 30 31 32 33 34 35 36 37 38 39 40 41 42 43 44 45 46 47 
SCALARS geom_link_dim int 1
LOOKUP_TABLE default
0 0 0 0 0 0 0 0 0 0 1 1 0 0 1 1 0 0 0 0 1 1 0 0 0 0 1 1 0 1 1 1 0 1 1 1 1 1 1 0 0 1 1 1 
SCALARS geom_link_id int 1
LOOKUP_TABLE default
-1 -1 -1 -1 -1 -1 -1 -1 -1 -1 16 18 -1 -1 17 15 -1 -1 -1 -1 19 20 -1 -1 -1 -1 24 25 -1 28 12 11 -1 21 10 9 5 1 4 -1 -1 31 26 29 


CELL_DATA 63
SCALARS GMDS_ID int 1
LOOKUP_TABLE default
0 7 10 12 15 22 24 25 27 31 32 33 35 36 40 41 45 47 48 49 50 52 53 54 55 56 58 59 60 61 62 63 64 66 68 69 70 71 72 73 74 75 76 77 78 80 81 82 83 84 86 87 88 89 90 91 92 93 94 95 96 97 98 

SCALARS geom_link_dim int 1
LOOKUP_TABLE default
0 0 0 0 0 0 0 0 0 0 0 0 0 0 0 0 0 0 0 0 0 0 0 0 0 0 0 0 0 0 0 0 0 0 0 0 0 0 0 0 0 0 0 0 0 0 0 0 0 0 0 0 0 0 0 0 0 0 0 0 0 0 0 

SCALARS geom_link_id int 1
LOOKUP_TABLE default
0 0 0 0 0 0 0 0 0 0 0 0 0 0 0 0 0 0 0 0 0 0 0 0 0 0 0 0 0 0 0 0 0 0 0 0 0 0 0 0 0 0 0 0 0 0 0 0 0 0 0 0 0 0 0 0 0 0 0 0 0 0 0 

