# vtk DataFile Version 3.0
Generated by GMDS VTK Writer

ASCII
DATASET UNSTRUCTURED_GRID
POINTS 18 float
-5 -5 -5
-5 10 -5
10 10 -5
10 -5 -5
-5 -5 10
-5 10 10
10 10 10
10 -5 10
8.88178419700125e-16 10 -5
8.88178419700125e-16 -5 -5
8.88178419700125e-16 -5 10
8.88178419700125e-16 10 10
10 10 -8.88178419700125e-16
10 -5 -8.88178419700125e-16
0 -5 0
0 10 0
-5 -5 -8.88178419700125e-16
-5 10 -8.88178419700125e-16

CELLS 20 100
4 13 14 10 7 
4 3 9 14 13 
4 12 13 7 6 
4 2 3 13 12 
4 2 3 9 8 
4 8 9 0 1 
4 6 7 10 11 
4 11 10 4 5 
4 8 9 14 15 
4 15 14 10 11 
4 2 8 15 12 
4 12 15 11 6 
4 12 13 14 15 
4 0 9 14 16 
4 16 14 10 4 
4 0 1 17 16 
4 16 17 5 4 
4 1 8 15 17 
4 17 15 11 5 
4 15 14 16 17 

CELL_TYPES 20
9 
9 
9 
9 
9 
9 
9 
9 
9 
9 
9 
9 
9 
9 
9 
9 
9 
9 
9 
9 
POINT_DATA 18
SCALARS GMDS_ID int 1
LOOKUP_TABLE default
0 1 2 3 4 5 6 7 8 9 10 11 12 13 14 15 16 17 
SCALARS geom_link_dim int 1
LOOKUP_TABLE default
0 0 0 0 0 0 0 0 0 0 0 0 0 0 1 1 0 0 
SCALARS geom_link_id int 1
LOOKUP_TABLE default
-1 -1 -1 -1 -1 -1 -1 -1 -1 -1 -1 -1 -1 -1 28 4 -1 -1 


CELL_DATA 20
SCALARS GMDS_ID int 1
LOOKUP_TABLE default
0 2 4 5 6 7 10 11 15 16 17 18 19 20 21 22 23 24 25 26 

SCALARS geom_link_dim int 1
LOOKUP_TABLE default
0 0 0 0 0 0 0 0 0 0 0 0 0 0 0 0 0 0 0 0 

SCALARS geom_link_id int 1
LOOKUP_TABLE default
-1 -1 -1 -1 0 0 0 0 -1 -1 -1 -1 -1 -1 -1 -1 -1 -1 -1 -1 

