# vtk DataFile Version 3.0
Generated by GMDS VTK Writer

ASCII
DATASET UNSTRUCTURED_GRID
POINTS 48 float
5 0 5
10 -5 -5
10 0 5
-5 10 10
10 -4.44089209850063e-16 -5
-5 5 -5
-5 5 10
5 -5 -5
5 -5 10
5 5 10
5 5 -5
5 10 10
0 -5 -5
0 -5 10
0 5 10
0 5 -5
0 10 10
5 0 10
5 0 -5
0 0 -5
0 0 10
-5 -4.44089209850063e-16 10
-5 -4.44089209850063e-16 -5
5 5 5
10 5 5
10 -5 5
5 -5 5
5 10 5
0 10 5
0 5 5
-5 10 5
-5 5 5
-5 0 5
0 0 5
0 -5 5
10 0 0
5 0 0
5 5 0
10 5 0
10 -5 -4.44089209850063e-16
5 -5 0
5 10 0
0 10 0
0 5 0
-5 5 0
-5 0 0
0 0 0
0 -5 0

CELLS 68 340
4 41 42 28 27 
4 26 0 17 8 
4 37 41 27 23 
4 39 40 36 35 
4 39 35 2 25 
4 2 0 23 24 
4 23 0 17 9 
4 1 4 35 39 
4 40 36 0 26 
4 7 18 36 40 
4 1 7 18 4 
4 39 40 26 25 
4 1 7 40 39 
4 35 36 37 38 
4 35 38 24 2 
4 9 11 16 14 
4 14 16 3 6 
4 38 37 23 24 
4 37 36 0 23 
4 21 20 14 6 
4 10 18 36 37 
4 22 19 15 5 
4 35 36 0 2 
4 8 13 20 17 
4 17 20 14 9 
4 7 12 19 18 
4 18 19 15 10 
4 4 18 36 35 
4 25 26 0 2 
4 23 27 11 9 
4 27 28 16 11 
4 29 28 16 14 
4 23 29 14 9 
4 23 27 28 29 
4 30 28 16 3 
4 30 31 6 3 
4 31 29 14 6 
4 29 28 30 31 
4 33 32 21 20 
4 29 33 20 14 
4 31 32 21 6 
4 32 33 29 31 
4 26 34 13 8 
4 34 33 20 13 
4 0 33 20 17 
4 26 34 33 0 
4 0 33 29 23 
4 43 42 28 29 
4 10 15 43 37 
4 37 43 29 23 
4 37 41 42 43 
4 5 15 43 44 
4 44 43 29 31 
4 19 22 45 46 
4 46 45 32 33 
4 15 19 46 43 
4 43 46 33 29 
4 5 22 45 44 
4 44 45 32 31 
4 45 46 43 44 
4 7 12 47 40 
4 40 47 34 26 
4 12 19 46 47 
4 47 46 33 34 
4 18 19 46 36 
4 36 46 33 0 
4 40 47 46 36 
4 36 46 43 37 

CELL_TYPES 68
9 
9 
9 
9 
9 
9 
9 
9 
9 
9 
9 
9 
9 
9 
9 
9 
9 
9 
9 
9 
9 
9 
9 
9 
9 
9 
9 
9 
9 
9 
9 
9 
9 
9 
9 
9 
9 
9 
9 
9 
9 
9 
9 
9 
9 
9 
9 
9 
9 
9 
9 
9 
9 
9 
9 
9 
9 
9 
9 
9 
9 
9 
9 
9 
9 
9 
9 
9 
POINT_DATA 48
SCALARS GMDS_ID int 1
LOOKUP_TABLE default
0 3 4 5 6 8 9 12 13 14 15 16 18 19 20 21 22 24 25 26 27 28 29 30 31 32 33 34 35 36 37 38 39 40 41 42 43 44 45 46 47 48 49 50 52 53 54 55 
SCALARS geom_link_dim_0 int 1
LOOKUP_TABLE default
0 0 0 0 0 0 0 0 0 0 0 0 0 0 0 0 0 0 0 0 0 0 0 0 0 0 0 0 0 0 0 0 0 0 0 0 0 0 0 0 0 0 0 0 0 0 0 0 
SCALARS geom_link_id_0 int 1
LOOKUP_TABLE default
0 0 0 0 0 0 0 0 0 0 0 0 0 0 0 0 0 0 0 0 0 0 0 0 0 0 0 0 0 0 0 0 0 0 0 0 0 0 0 0 0 0 0 0 0 0 0 0 


CELL_DATA 68
SCALARS GMDS_ID int 1
LOOKUP_TABLE default
0 2 4 7 8 12 13 14 15 16 21 22 23 24 25 29 30 31 35 37 39 41 42 43 44 45 46 47 49 51 53 55 57 58 60 62 64 65 67 69 71 72 74 76 78 79 80 82 83 84 85 90 91 93 94 95 96 97 98 99 100 101 102 103 104 105 106 107 

SCALARS geom_link_dim_0 int 1
LOOKUP_TABLE default
0 0 0 0 0 0 0 0 0 0 0 0 0 0 0 0 0 0 0 0 0 0 0 0 0 0 0 0 0 0 0 0 0 0 0 0 0 0 0 0 0 0 0 0 0 0 0 0 0 0 0 0 0 0 0 0 0 0 0 0 0 0 0 0 0 0 0 0 

SCALARS geom_link_id_0 int 1
LOOKUP_TABLE default
0 0 0 0 0 0 0 0 0 0 0 0 0 0 0 0 0 0 0 0 0 0 0 0 0 0 0 0 0 0 0 0 0 0 0 0 0 0 0 0 0 0 0 0 0 0 0 0 0 0 0 0 0 0 0 0 0 0 0 0 0 0 0 0 0 0 0 0 

