# vtk DataFile Version 3.0
Generated by GMDS VTK Writer

ASCII
DATASET UNSTRUCTURED_GRID
POINTS 30 float
8.88178419700125e-16 -5 10
8.88178419700125e-16 10 10
10 5 10
0 5 10
0 5 -5
-5 5 10
-5 5 -5
5 5 -5
5 5 10
5 10 10
5 -5 10
0 0 -5
0 0 10
-5 -4.44089209850063e-16 10
-5 -4.44089209850063e-16 -5
10 -4.44089209850063e-16 10
5 0 10
5 0 -5
0 -5 0
0 0 0
-5 0 0
10 5 0
5 5 0
5 10 0
-5 5 0
0 5 0
0 10 0
5 -5 0
5 0 0
10 0 0

CELLS 35 175
4 9 8 3 1 
4 13 12 3 5 
4 19 20 13 12 
4 11 14 20 19 
4 18 19 12 0 
4 14 11 4 6 
4 15 16 8 2 
4 0 10 16 12 
4 12 16 8 3 
4 11 17 7 4 
4 21 22 8 2 
4 22 23 9 8 
4 4 6 24 25 
4 25 24 5 3 
4 26 25 3 1 
4 4 7 22 25 
4 25 22 8 3 
4 26 23 9 1 
4 23 22 25 26 
4 4 11 19 25 
4 25 19 12 3 
4 6 14 20 24 
4 24 20 13 5 
4 20 19 25 24 
4 27 28 16 10 
4 29 28 16 15 
4 7 17 28 22 
4 22 28 16 8 
4 21 29 15 2 
4 29 28 22 21 
4 18 27 10 0 
4 11 17 28 19 
4 19 28 16 12 
4 18 27 28 19 
4 19 28 22 25 

CELL_TYPES 35
9 
9 
9 
9 
9 
9 
9 
9 
9 
9 
9 
9 
9 
9 
9 
9 
9 
9 
9 
9 
9 
9 
9 
9 
9 
9 
9 
9 
9 
9 
9 
9 
9 
9 
9 
POINT_DATA 30
SCALARS GMDS_ID int 1
LOOKUP_TABLE default
10 11 13 14 15 16 17 18 19 20 23 24 25 26 27 29 30 31 33 34 35 37 38 39 40 41 42 45 46 47 
SCALARS geom_link_dim int 1
LOOKUP_TABLE default
0 0 0 1 1 0 0 1 1 0 0 1 1 0 0 0 1 1 1 1 1 1 1 1 1 1 1 1 1 1 
SCALARS geom_link_id int 1
LOOKUP_TABLE default
-1 -1 -1 16 18 -1 -1 17 15 -1 -1 19 20 -1 -1 -1 24 25 28 12 11 21 10 9 5 1 4 31 26 29 


CELL_DATA 35
SCALARS GMDS_ID int 1
LOOKUP_TABLE default
7 12 24 31 32 36 41 47 48 50 54 56 60 61 63 69 70 72 73 74 75 76 77 78 82 84 88 89 91 92 94 95 96 97 98 

SCALARS geom_link_dim int 1
LOOKUP_TABLE default
0 0 0 0 0 0 0 0 0 0 0 0 0 0 0 0 0 0 0 0 0 0 0 0 0 0 0 0 0 0 0 0 0 0 0 

SCALARS geom_link_id int 1
LOOKUP_TABLE default
0 0 0 0 0 0 0 0 0 0 0 0 0 0 0 0 0 0 0 0 0 0 0 0 0 0 0 0 0 0 0 0 0 0 0 

