# vtk DataFile Version 3.0
Generated by GMDS VTK Writer

ASCII
DATASET UNSTRUCTURED_GRID
POINTS 42 float
10 5 5
0 10 5
5 5 5
5 -5 5
10 0 5
8.88178419700125e-16 -5 10
8.88178419700125e-16 10 10
0 0 5
10 5 10
0 5 10
0 5 -5
-5 5 10
-5 5 -5
5 5 -5
5 5 10
5 10 10
0 -5 5
-5 5 5
5 -5 10
0 0 -5
0 0 10
-5 -4.44089209850063e-16 10
-5 -4.44089209850063e-16 -5
-5 0 5
10 -4.44089209850063e-16 10
5 0 10
5 0 -5
5 0 5
0 -5 0
0 0 0
-5 0 0
0 5 5
10 5 0
5 5 0
5 10 0
-5 5 0
0 5 0
0 10 0
5 10 5
5 -5 0
5 0 0
10 0 0

CELLS 56 280
4 27 4 24 25 
4 28 29 7 16 
4 7 27 25 20 
4 15 14 9 6 
4 38 1 6 15 
4 21 20 9 11 
4 40 41 4 27 
4 3 27 25 18 
4 16 3 18 5 
4 7 27 2 31 
4 23 17 11 21 
4 28 39 3 16 
4 0 2 14 8 
4 19 22 30 29 
4 7 31 9 20 
4 39 40 27 3 
4 23 7 31 17 
4 22 19 10 12 
4 2 31 9 14 
4 24 25 14 8 
4 29 36 31 7 
4 5 18 25 20 
4 20 25 14 9 
4 30 35 17 23 
4 19 26 13 10 
4 31 1 6 9 
4 29 30 23 7 
4 32 33 2 0 
4 29 40 27 7 
4 36 37 1 31 
4 34 37 1 38 
4 10 12 35 36 
4 2 27 25 14 
4 0 4 24 8 
4 16 3 27 7 
4 32 41 4 0 
4 16 7 20 5 
4 4 27 2 0 
4 10 13 33 36 
4 33 40 27 2 
4 34 33 36 37 
4 10 19 29 36 
4 12 22 30 35 
4 30 29 36 35 
4 2 38 15 14 
4 35 36 31 17 
4 7 23 21 20 
4 33 34 38 2 
4 33 36 31 2 
4 13 26 40 33 
4 38 2 31 1 
4 41 40 33 32 
4 17 31 9 11 
4 19 26 40 29 
4 28 39 40 29 
4 29 40 33 36 

CELL_TYPES 56
9 
9 
9 
9 
9 
9 
9 
9 
9 
9 
9 
9 
9 
9 
9 
9 
9 
9 
9 
9 
9 
9 
9 
9 
9 
9 
9 
9 
9 
9 
9 
9 
9 
9 
9 
9 
9 
9 
9 
9 
9 
9 
9 
9 
9 
9 
9 
9 
9 
9 
9 
9 
9 
9 
9 
9 
POINT_DATA 42
SCALARS GMDS_ID int 1
LOOKUP_TABLE default
0 6 7 8 9 10 11 12 13 14 15 16 17 18 19 20 21 22 23 24 25 26 27 28 29 30 31 32 33 34 35 36 37 38 39 40 41 42 44 45 46 47 
SCALARS geom_link_dim int 1
LOOKUP_TABLE default
1 1 1 1 1 0 0 1 0 1 1 0 0 1 1 0 1 1 0 1 1 0 0 1 0 1 1 1 1 1 1 1 1 1 1 1 1 1 1 1 1 1 
SCALARS geom_link_id int 1
LOOKUP_TABLE default
22 3 8 32 30 -1 -1 14 -1 16 18 -1 -1 17 15 -1 27 6 -1 19 20 -1 -1 13 -1 24 25 23 28 12 11 2 21 10 9 5 1 4 7 31 26 29 


CELL_DATA 56
SCALARS GMDS_ID int 1
LOOKUP_TABLE default
0 1 5 7 10 12 15 17 20 21 22 25 27 31 33 34 35 36 40 41 45 47 48 49 50 52 53 55 57 58 59 60 62 64 65 66 67 68 69 71 73 74 76 78 80 81 83 86 87 88 90 92 93 95 97 98 

SCALARS geom_link_dim int 1
LOOKUP_TABLE default
0 0 0 0 0 0 0 0 0 0 0 0 0 0 0 0 0 0 0 0 0 0 0 0 0 0 0 0 0 0 0 0 0 0 0 0 0 0 0 0 0 0 0 0 0 0 0 0 0 0 0 0 0 0 0 0 

SCALARS geom_link_id int 1
LOOKUP_TABLE default
-1 -1 -1 0 -1 0 -1 -1 -1 -1 -1 -1 -1 0 -1 -1 -1 0 -1 0 -1 0 0 -1 0 -1 -1 -1 -1 -1 -1 0 -1 -1 -1 -1 -1 -1 0 -1 0 0 0 0 -1 -1 -1 -1 -1 0 -1 0 -1 0 0 0 

