# vtk DataFile Version 3.0
Generated by GMDS VTK Writer

ASCII
DATASET UNSTRUCTURED_GRID
POINTS 64 float
-5 -5 -5
-5 10 -5
10 10 -5
10 -5 -5
-5 -5 10
-5 10 10
10 10 10
10 -5 10
-5 -8.88178419700125e-16 -5
-5 -8.88178419700125e-16 10
10 -8.88178419700125e-16 10
10 -8.88178419700125e-16 -5
-5 -5 -8.88178419700125e-16
10 -5 -8.88178419700125e-16
10 0 0
-5 0 0
10 10 -8.88178419700125e-16
-5 10 -8.88178419700125e-16
-5 -5 5
10 -5 5
10 0 5
-5 0 5
10 10 5
-5 10 5
-5 5 -5
10 5 -5
10 5 0
-5 5 0
-5 5 5
10 5 5
-5 5 10
10 5 10
-8.88178419700125e-16 10 -5
0 10 0
-8.88178419700125e-16 5 0
0 5 -5
0 -5 0
-8.88178419700125e-16 0 0
0 0 5
0 -5 5
-8.88178419700125e-16 -5 -5
0 0 -5
0 0 10
-8.88178419700125e-16 -5 10
0 10 5
-8.88178419700125e-16 5 5
-8.88178419700125e-16 10 10
0 5 10
5 10 -5
5 10 0
5 5 0
5 5 -5
5 -5 0
5 0 0
5 0 5
5 -5 5
5 -5 -5
5 0 -5
5 0 10
5 -5 10
5 10 5
5 5 5
5 10 10
5 5 10

CELLS 106 530
4 1 17 27 24 
4 3 11 14 13 
4 12 15 21 18 
4 52 56 3 13 
4 36 40 56 52 
4 53 57 11 14 
4 37 41 57 53 
4 19 20 10 7 
4 56 57 11 3 
4 12 15 37 36 
4 13 14 20 19 
4 40 41 57 56 
4 52 53 54 55 
4 32 33 34 35 
4 52 55 19 13 
4 36 39 55 52 
4 54 55 19 20 
4 0 8 15 12 
4 25 26 14 11 
4 38 39 55 54 
4 2 16 26 25 
4 53 54 20 14 
4 37 38 54 53 
4 1 24 35 32 
4 52 53 14 13 
4 18 21 9 4 
4 36 37 53 52 
4 24 27 34 35 
4 48 49 50 51 
4 48 51 25 2 
4 17 27 34 33 
4 1 17 33 32 
4 24 27 15 8 
4 32 35 51 48 
4 17 23 28 27 
4 27 28 21 15 
4 50 51 25 26 
4 34 35 51 50 
4 16 22 29 26 
4 26 29 20 14 
4 49 50 26 16 
4 5 23 28 30 
4 30 28 21 9 
4 33 34 50 49 
4 48 49 16 2 
4 6 22 29 31 
4 31 29 20 10 
4 32 33 49 48 
4 15 21 38 37 
4 18 21 38 39 
4 12 18 39 36 
4 36 37 38 39 
4 0 8 41 40 
4 8 15 37 41 
4 0 12 36 40 
4 40 41 37 36 
4 9 21 38 42 
4 4 9 42 43 
4 4 18 39 43 
4 39 38 42 43 
4 15 27 34 37 
4 8 24 35 41 
4 35 34 37 41 
4 17 23 44 33 
4 23 28 45 44 
4 27 28 45 34 
4 33 44 45 34 
4 21 28 45 38 
4 34 45 38 37 
4 5 23 44 46 
4 28 30 47 45 
4 5 30 47 46 
4 46 44 45 47 
4 9 30 47 42 
4 47 45 38 42 
4 56 57 53 52 
4 38 42 58 54 
4 54 58 10 20 
4 58 59 7 10 
4 55 59 7 19 
4 55 54 58 59 
4 34 37 53 50 
4 50 53 14 26 
4 35 41 57 51 
4 51 57 11 25 
4 51 50 53 57 
4 33 44 60 49 
4 49 60 22 16 
4 44 45 61 60 
4 60 61 29 22 
4 34 45 61 50 
4 50 61 29 26 
4 49 60 61 50 
4 38 45 61 54 
4 54 61 29 20 
4 50 61 54 53 
4 44 46 62 60 
4 60 62 6 22 
4 45 47 63 61 
4 61 63 31 29 
4 46 47 63 62 
4 62 63 31 6 
4 62 60 61 63 
4 42 47 63 58 
4 58 63 31 10 
4 63 61 54 58 

CELL_TYPES 106
9 
9 
9 
9 
9 
9 
9 
9 
9 
9 
9 
9 
9 
9 
9 
9 
9 
9 
9 
9 
9 
9 
9 
9 
9 
9 
9 
9 
9 
9 
9 
9 
9 
9 
9 
9 
9 
9 
9 
9 
9 
9 
9 
9 
9 
9 
9 
9 
9 
9 
9 
9 
9 
9 
9 
9 
9 
9 
9 
9 
9 
9 
9 
9 
9 
9 
9 
9 
9 
9 
9 
9 
9 
9 
9 
9 
9 
9 
9 
9 
9 
9 
9 
9 
9 
9 
9 
9 
9 
9 
9 
9 
9 
9 
9 
9 
9 
9 
9 
9 
9 
9 
9 
9 
9 
9 
POINT_DATA 64
SCALARS GMDS_ID int 1
LOOKUP_TABLE default
0 1 2 3 4 5 6 7 8 9 10 11 12 13 14 15 16 17 18 19 20 21 22 23 24 25 26 27 28 29 30 31 32 33 34 35 36 37 38 39 40 41 42 43 44 45 46 47 48 49 50 51 52 53 54 55 56 57 58 59 60 61 62 63 
SCALARS geom_link_dim_0 int 1
LOOKUP_TABLE default
0 0 0 0 0 0 0 0 0 0 0 0 0 0 0 0 0 0 0 0 0 0 0 0 0 0 0 0 0 0 0 0 0 0 0 0 0 0 0 0 0 0 0 0 0 0 0 0 0 0 0 0 0 0 0 0 0 0 0 0 0 0 0 0 
SCALARS geom_link_id_0 int 1
LOOKUP_TABLE default
0 0 0 0 0 0 0 0 0 0 0 0 0 0 0 0 0 0 0 0 0 0 0 0 0 0 0 0 0 0 0 0 0 0 0 0 0 0 0 0 0 0 0 0 0 0 0 0 0 0 0 0 0 0 0 0 0 0 0 0 0 0 0 0 


CELL_DATA 106
SCALARS GMDS_ID int 1
LOOKUP_TABLE default
0 1 2 3 4 5 6 7 8 9 10 11 12 13 14 15 16 17 18 19 21 22 23 24 25 27 28 29 31 32 33 35 36 37 38 39 40 41 42 43 44 45 46 47 48 49 50 51 53 55 57 59 60 62 64 66 67 69 71 73 74 76 78 79 81 83 85 86 88 89 91 93 95 96 98 99 100 101 103 105 106 107 108 109 110 111 112 113 114 115 116 117 118 119 120 121 122 123 124 125 126 127 128 129 130 131 

SCALARS geom_link_dim_0 int 1
LOOKUP_TABLE default
0 0 0 0 0 0 0 0 0 0 0 0 0 0 0 0 0 0 0 0 0 0 0 0 0 0 0 0 0 0 0 0 0 0 0 0 0 0 0 0 0 0 0 0 0 0 0 0 0 0 0 0 0 0 0 0 0 0 0 0 0 0 0 0 0 0 0 0 0 0 0 0 0 0 0 0 0 0 0 0 0 0 0 0 0 0 0 0 0 0 0 0 0 0 0 0 0 0 0 0 0 0 0 0 0 0 

SCALARS geom_link_id_0 int 1
LOOKUP_TABLE default
0 0 0 0 0 0 0 0 0 0 0 0 0 0 0 0 0 0 0 0 0 0 0 0 0 0 0 0 0 0 0 0 0 0 0 0 0 0 0 0 0 0 0 0 0 0 0 0 0 0 0 0 0 0 0 0 0 0 0 0 0 0 0 0 0 0 0 0 0 0 0 0 0 0 0 0 0 0 0 0 0 0 0 0 0 0 0 0 0 0 0 0 0 0 0 0 0 0 0 0 0 0 0 0 0 0 

