# vtk DataFile Version 3.0
Generated by GMDS VTK Writer

ASCII
DATASET UNSTRUCTURED_GRID
POINTS 40 float
-5 -5 -5
-5 -5 10
-5 -8.88178419700125e-16 -5
-5 -8.88178419700125e-16 10
-5 -5 -8.88178419700125e-16
10 0 0
-5 0 0
-5 -5 5
10 0 5
-5 0 5
10 5 0
-5 5 0
-5 5 5
10 5 5
0 10 0
0 5 0
0 5 -5
0 -5 0
0 0 0
0 0 5
0 -5 5
-8.88178419700125e-16 -5 -5
0 0 -5
0 0 10
-8.88178419700125e-16 -5 10
0 10 5
0 5 5
0 5 10
5 10 0
5 5 0
5 5 -5
5 -5 0
5 0 0
5 0 5
5 -5 5
5 0 -5
5 0 10
5 10 5
5 5 5
5 5 10

CELLS 48 240
4 18 22 35 32 
4 4 6 18 17 
4 31 32 33 34 
4 17 20 34 31 
4 0 2 6 4 
4 19 20 34 33 
4 32 33 8 5 
4 18 19 33 32 
4 7 9 3 1 
4 17 18 32 31 
4 11 12 9 6 
4 15 16 30 29 
4 10 13 8 5 
4 14 15 29 28 
4 6 9 19 18 
4 7 9 19 20 
4 17 18 19 20 
4 0 2 22 21 
4 2 6 18 22 
4 0 4 17 21 
4 21 22 18 17 
4 3 9 19 23 
4 1 3 23 24 
4 1 7 20 24 
4 20 19 23 24 
4 6 11 15 18 
4 16 15 18 22 
4 11 12 26 15 
4 14 25 26 15 
4 9 12 26 19 
4 15 26 19 18 
4 27 26 19 23 
4 19 23 36 33 
4 15 18 32 29 
4 29 32 5 10 
4 16 22 35 30 
4 30 29 32 35 
4 14 25 37 28 
4 25 26 38 37 
4 15 26 38 29 
4 29 38 13 10 
4 28 37 38 29 
4 19 26 38 33 
4 33 38 13 8 
4 29 38 33 32 
4 26 27 39 38 
4 23 27 39 36 
4 39 38 33 36 

CELL_TYPES 48
9 
9 
9 
9 
9 
9 
9 
9 
9 
9 
9 
9 
9 
9 
9 
9 
9 
9 
9 
9 
9 
9 
9 
9 
9 
9 
9 
9 
9 
9 
9 
9 
9 
9 
9 
9 
9 
9 
9 
9 
9 
9 
9 
9 
9 
9 
9 
9 
POINT_DATA 40
SCALARS GMDS_ID int 1
LOOKUP_TABLE default
0 1 2 3 4 6 7 8 10 11 12 13 14 15 16 17 18 19 20 21 22 23 24 25 26 27 28 29 30 31 32 33 34 35 36 37 38 39 40 41 
SCALARS geom_link_dim int 1
LOOKUP_TABLE default
0 0 0 0 0 1 1 0 1 1 1 1 1 1 1 1 1 1 1 1 1 0 1 1 0 1 1 1 1 1 1 1 1 1 1 1 1 1 1 1 
SCALARS geom_link_id int 1
LOOKUP_TABLE default
-1 -1 -1 -1 -1 29 11 -1 30 13 21 5 6 22 4 1 18 28 12 14 27 -1 19 20 -1 3 2 16 9 10 17 31 26 23 32 25 24 7 8 15 


CELL_DATA 48
SCALARS GMDS_ID int 1
LOOKUP_TABLE default
0 1 3 5 7 8 9 10 12 13 14 15 16 17 18 19 20 21 22 23 24 25 26 27 28 29 30 31 32 33 34 35 36 37 38 39 40 41 42 43 44 45 46 47 48 49 50 51 

SCALARS geom_link_dim int 1
LOOKUP_TABLE default
3 0 3 3 0 3 3 0 0 3 3 3 3 3 3 0 3 0 0 0 0 0 0 0 0 3 3 3 3 3 0 3 3 0 3 3 3 3 3 0 3 3 0 3 0 3 3 3 

SCALARS geom_link_id int 1
LOOKUP_TABLE default
1 0 2 29 0 6 22 0 0 5 18 12 23 14 10 0 24 0 0 0 0 0 0 0 0 27 3 19 7 9 0 16 30 0 21 26 17 8 13 0 11 28 0 20 0 4 25 15 

