# vtk DataFile Version 3.0
Generated by GMDS VTK Writer

ASCII
DATASET UNSTRUCTURED_GRID
POINTS 30 float
5 -5 0
5 10 0
10 10 -5
10 -5 -5
-5 -5 10
-5 10 10
10 10 10
10 -5 10
8.88178419700125e-16 10 -5
8.88178419700125e-16 -5 -5
8.88178419700125e-16 -5 10
8.88178419700125e-16 10 10
10 10 -8.88178419700125e-16
10 -5 -8.88178419700125e-16
0 -5 0
0 10 0
-5 -5 -8.88178419700125e-16
-5 10 -8.88178419700125e-16
5 -5 10
5 10 10
5 10 -5
5 -5 -5
5 10 5
5 -5 5
0 -5 5
0 10 5
10 10 5
10 -5 5
-5 -5 5
-5 10 5

CELLS 38 190
4 1 15 25 22 
4 20 21 9 8 
4 24 25 11 10 
4 2 3 21 20 
4 2 3 13 12 
4 14 15 25 24 
4 23 24 10 18 
4 11 10 4 5 
4 19 18 10 11 
4 6 7 18 19 
4 8 9 14 15 
4 0 14 24 23 
4 23 22 19 18 
4 0 1 22 23 
4 1 0 14 15 
4 12 13 0 1 
4 15 14 16 17 
4 3 13 0 21 
4 21 0 14 9 
4 2 12 1 20 
4 20 1 15 8 
4 20 21 0 1 
4 22 25 11 19 
4 22 23 24 25 
4 12 13 27 26 
4 26 27 7 6 
4 0 13 27 23 
4 23 27 7 18 
4 1 12 26 22 
4 22 26 6 19 
4 26 27 23 22 
4 14 16 28 24 
4 24 28 4 10 
4 16 17 29 28 
4 28 29 5 4 
4 15 17 29 25 
4 25 29 5 11 
4 25 24 28 29 

CELL_TYPES 38
9 
9 
9 
9 
9 
9 
9 
9 
9 
9 
9 
9 
9 
9 
9 
9 
9 
9 
9 
9 
9 
9 
9 
9 
9 
9 
9 
9 
9 
9 
9 
9 
9 
9 
9 
9 
9 
9 
POINT_DATA 30
SCALARS GMDS_ID int 1
LOOKUP_TABLE default
0 1 2 3 4 5 6 7 8 9 10 11 12 13 14 15 16 17 18 19 20 21 22 23 24 25 26 27 28 29 
SCALARS geom_link_dim int 1
LOOKUP_TABLE default
1 1 0 0 0 0 0 0 0 0 0 0 0 0 1 1 0 0 0 0 0 0 1 1 1 1 0 0 0 0 
SCALARS geom_link_id int 1
LOOKUP_TABLE default
31 9 -1 -1 -1 -1 -1 -1 -1 -1 -1 -1 -1 -1 28 4 -1 -1 -1 -1 -1 -1 7 32 27 3 -1 -1 -1 -1 


CELL_DATA 38
SCALARS GMDS_ID int 1
LOOKUP_TABLE default
0 1 2 3 5 6 10 11 13 14 15 17 18 19 22 24 26 27 28 29 30 31 32 33 34 35 36 37 38 39 40 41 42 43 44 45 46 47 

SCALARS geom_link_dim int 1
LOOKUP_TABLE default
0 0 0 0 0 0 0 0 0 0 0 0 0 0 0 0 0 0 0 0 0 0 0 0 0 0 0 0 0 0 0 0 0 0 0 0 0 0 

SCALARS geom_link_id int 1
LOOKUP_TABLE default
-1 0 -1 0 0 -1 -1 0 0 0 0 -1 -1 -1 0 0 0 0 0 0 0 0 -1 -1 -1 -1 -1 -1 -1 -1 -1 -1 -1 -1 -1 -1 -1 -1 

