# vtk DataFile Version 3.0
Generated by GMDS VTK Writer

ASCII
DATASET UNSTRUCTURED_GRID
POINTS 38 float
5 0 -5
5 0 10
0 0 10
5 0 5
-5 0 5
-5 0 0
5 -5 10
0 0 -5
10 -5 -8.88178419700125e-16
5 -5 0
5 10 0
-5 10 -8.88178419700125e-16
10 0 5
10 -5 5
5 -5 5
5 10 5
-5 10 5
0 10 0
0 -5 0
0 10 5
0 -5 5
5 0 0
8.88178419700125e-16 -5 10
0 0 5
5 5 -5
5 5 0
10 5 0
5 5 5
10 5 5
0 5 -5
0 5 0
0 0 0
-5 5 0
-5 5 5
0 5 5
10 0 0
0 5 10
5 5 10

CELLS 48 240
4 17 19 15 10 
4 35 21 3 12 
4 11 16 19 17 
4 7 0 24 29 
4 5 4 33 32 
4 8 9 14 13 
4 31 23 34 30 
4 5 4 23 31 
4 21 31 30 25 
4 7 31 21 0 
4 35 12 28 26 
4 0 21 25 24 
4 5 31 30 32 
4 18 20 14 9 
4 2 23 3 1 
4 13 14 3 12 
4 6 14 3 1 
4 1 2 36 37 
4 6 22 2 1 
4 31 23 3 21 
4 22 20 14 6 
4 1 3 27 37 
4 25 27 15 10 
4 8 13 12 35 
4 12 3 27 28 
4 26 25 27 28 
4 25 30 17 10 
4 29 30 25 24 
4 7 31 30 29 
4 18 20 23 31 
4 32 30 17 11 
4 4 23 34 33 
4 9 18 31 21 
4 32 33 16 11 
4 33 34 19 16 
4 30 34 19 17 
4 32 33 34 30 
4 27 34 19 15 
4 30 34 27 25 
4 3 23 34 27 
4 9 14 3 21 
4 35 21 25 26 
4 14 20 23 3 
4 8 9 21 35 
4 21 3 27 25 
4 23 2 36 34 
4 20 22 2 23 
4 36 34 27 37 

CELL_TYPES 48
9 
9 
9 
9 
9 
9 
9 
9 
9 
9 
9 
9 
9 
9 
9 
9 
9 
9 
9 
9 
9 
9 
9 
9 
9 
9 
9 
9 
9 
9 
9 
9 
9 
9 
9 
9 
9 
9 
9 
9 
9 
9 
9 
9 
9 
9 
9 
9 
POINT_DATA 38
SCALARS GMDS_ID int 1
LOOKUP_TABLE default
0 1 3 5 6 8 10 12 13 14 15 17 18 19 20 21 23 24 25 26 27 28 29 30 31 32 33 34 35 36 37 38 39 40 41 42 43 44 
SCALARS geom_link_dim int 1
LOOKUP_TABLE default
1 1 1 1 1 1 0 1 0 1 1 0 1 0 1 1 0 1 1 1 1 1 0 1 1 1 1 1 1 1 1 1 1 1 1 1 1 1 
SCALARS geom_link_id int 1
LOOKUP_TABLE default
25 24 20 23 13 11 -1 19 -1 31 9 -1 30 -1 32 7 -1 4 28 3 27 26 -1 14 17 10 21 8 22 18 1 12 5 6 2 29 16 15 


CELL_DATA 48
SCALARS GMDS_ID int 1
LOOKUP_TABLE default
0 1 4 10 11 12 13 17 21 24 26 30 34 39 40 41 42 43 44 45 46 47 48 50 52 53 57 60 61 62 64 66 67 69 71 73 74 76 77 78 79 81 82 83 84 86 88 89 

SCALARS geom_link_dim int 1
LOOKUP_TABLE default
0 0 0 0 0 0 0 0 0 0 0 0 0 0 0 0 0 0 0 0 0 0 0 0 0 0 0 0 0 0 0 0 0 0 0 0 0 0 0 0 0 0 0 0 0 0 0 0 

SCALARS geom_link_id int 1
LOOKUP_TABLE default
0 0 0 0 0 0 0 0 0 0 0 0 0 0 0 0 0 0 0 0 0 0 0 0 0 0 0 0 0 0 0 0 0 0 0 0 0 0 0 0 0 0 0 0 0 0 0 0 

