# vtk DataFile Version 3.0
Generated by GMDS VTK Writer

ASCII
DATASET UNSTRUCTURED_GRID
POINTS 48 float
-5 -5 -5
-5 10 -5
10 10 -5
10 -5 -5
-5 -5 10
-5 10 10
10 10 10
10 -5 10
8.88178419700125e-16 10 -5
8.88178419700125e-16 -5 -5
8.88178419700125e-16 -5 10
8.88178419700125e-16 10 10
10 5 -5
10 5 10
0 5 10
0 5 -5
-5 5 10
-5 5 -5
5 5 -5
5 5 10
5 10 10
5 10 -5
5 -5 -5
5 -5 10
0 0 -5
0 0 10
-5 -4.44089209850063e-16 10
-5 -4.44089209850063e-16 -5
10 -4.44089209850063e-16 -5
10 -4.44089209850063e-16 10
5 0 10
5 0 -5
-5 -5 -8.88178419700125e-16
0 -5 0
0 0 -8.88178419700125e-16
-5 0 0
10 10 -8.88178419700125e-16
10 5 0
5 5 -8.88178419700125e-16
5 10 0
-5 5 0
0 5 -8.88178419700125e-16
0 10 0
-5 10 -8.88178419700125e-16
10 -5 -8.88178419700125e-16
5 -5 0
5 0 -8.88178419700125e-16
10 0 0

CELLS 75 375
4 0 9 24 27 
4 2 12 18 21 
4 2 12 37 36 
4 20 19 14 11 
4 6 13 19 20 
4 26 25 14 16 
4 32 33 34 35 
4 4 10 25 26 
4 32 35 26 4 
4 16 14 11 5 
4 0 27 35 32 
4 34 35 26 25 
4 17 15 8 1 
4 21 18 15 8 
4 24 27 35 34 
4 33 34 25 10 
4 9 24 34 33 
4 32 33 10 4 
4 0 9 33 32 
4 27 24 15 17 
4 7 23 30 29 
4 29 30 19 13 
4 3 22 31 28 
4 28 31 18 12 
4 10 23 30 25 
4 25 30 19 14 
4 9 22 31 24 
4 24 31 18 15 
4 36 37 13 6 
4 12 18 38 37 
4 37 38 19 13 
4 18 21 39 38 
4 38 39 20 19 
4 2 21 39 36 
4 36 39 20 6 
4 36 37 38 39 
4 15 17 40 41 
4 41 40 16 14 
4 8 15 41 42 
4 42 41 14 11 
4 1 8 42 43 
4 43 42 11 5 
4 1 17 40 43 
4 43 40 16 5 
4 40 41 42 43 
4 15 18 38 41 
4 41 38 19 14 
4 8 21 39 42 
4 42 39 20 11 
4 39 38 41 42 
4 15 24 34 41 
4 41 34 25 14 
4 17 27 35 40 
4 40 35 26 16 
4 35 34 41 40 
4 3 22 45 44 
4 44 45 23 7 
4 22 31 46 45 
4 45 46 30 23 
4 28 31 46 47 
4 47 46 30 29 
4 3 28 47 44 
4 44 47 29 7 
4 44 45 46 47 
4 18 31 46 38 
4 38 46 30 19 
4 12 28 47 37 
4 37 47 29 13 
4 47 46 38 37 
4 9 22 45 33 
4 33 45 23 10 
4 24 31 46 34 
4 34 46 30 25 
4 33 45 46 34 
4 34 46 38 41 

CELL_TYPES 75
9 
9 
9 
9 
9 
9 
9 
9 
9 
9 
9 
9 
9 
9 
9 
9 
9 
9 
9 
9 
9 
9 
9 
9 
9 
9 
9 
9 
9 
9 
9 
9 
9 
9 
9 
9 
9 
9 
9 
9 
9 
9 
9 
9 
9 
9 
9 
9 
9 
9 
9 
9 
9 
9 
9 
9 
9 
9 
9 
9 
9 
9 
9 
9 
9 
9 
9 
9 
9 
9 
9 
9 
9 
9 
9 
POINT_DATA 48
SCALARS GMDS_ID int 1
LOOKUP_TABLE default
0 1 2 3 4 5 6 7 8 9 10 11 12 13 14 15 16 17 18 19 20 21 22 23 24 25 26 27 28 29 30 31 32 33 34 35 36 37 38 39 40 41 42 43 44 45 46 47 
SCALARS geom_link_dim int 1
LOOKUP_TABLE default
0 0 0 0 0 0 0 0 0 0 0 0 0 0 1 1 0 0 1 1 0 0 0 0 1 1 0 0 0 0 1 1 0 1 0 1 0 1 0 1 1 0 1 0 0 1 0 1 
SCALARS geom_link_id int 1
LOOKUP_TABLE default
-1 -1 -1 -1 -1 -1 -1 -1 -1 -1 -1 -1 -1 -1 16 18 -1 -1 17 15 -1 -1 -1 -1 19 20 -1 -1 -1 -1 24 25 -1 28 -1 11 -1 21 -1 9 5 -1 4 -1 -1 31 -1 29 


CELL_DATA 75
SCALARS GMDS_ID int 1
LOOKUP_TABLE default
0 1 5 7 10 12 15 17 20 21 22 24 25 27 31 32 33 34 35 36 40 41 44 45 47 48 49 50 52 53 54 55 56 57 58 59 60 61 62 63 64 65 66 67 68 69 70 71 72 73 74 75 76 77 78 79 80 81 82 83 84 85 86 87 88 89 90 91 92 93 94 95 96 97 98 

SCALARS geom_link_dim int 1
LOOKUP_TABLE default
0 0 0 0 0 0 0 0 0 0 0 0 0 0 0 0 0 0 0 0 0 0 0 0 0 0 0 0 0 0 0 0 0 0 0 0 0 0 0 0 0 0 0 0 0 0 0 0 0 0 0 0 0 0 0 0 0 0 0 0 0 0 0 0 0 0 0 0 0 0 0 0 0 0 0 

SCALARS geom_link_id int 1
LOOKUP_TABLE default
0 0 -1 0 0 0 -1 0 -1 0 -1 -1 0 0 -1 -1 -1 -1 -1 0 0 0 0 0 0 0 0 0 -1 -1 -1 -1 -1 -1 -1 -1 -1 -1 -1 -1 -1 -1 -1 -1 -1 -1 -1 -1 -1 -1 -1 -1 -1 -1 -1 -1 -1 -1 -1 -1 -1 -1 -1 -1 -1 -1 -1 -1 -1 -1 -1 -1 -1 -1 -1 

