# vtk DataFile Version 3.0
Generated by GMDS VTK Writer

ASCII
DATASET UNSTRUCTURED_GRID
POINTS 30 float
8.88178419700125e-16 -5 -5
5 -5 -5
5 -5 10
10 -5 -8.88178419700125e-16
5 -5 0
5 10 0
-5 -5 -8.88178419700125e-16
-5 10 -8.88178419700125e-16
10 -5 5
5 -5 5
5 10 5
-5 -5 5
-5 10 5
0 10 0
0 -5 0
0 10 5
0 -5 5
8.88178419700125e-16 -5 10
5 5 -5
5 5 0
10 5 0
5 5 5
10 5 5
0 5 -5
0 5 0
-5 5 0
-5 5 5
0 5 5
0 5 10
5 5 10

CELLS 35 175
4 13 15 10 5 
4 7 12 15 13 
4 4 9 21 19 
4 3 4 9 8 
4 0 14 4 1 
4 3 4 19 20 
4 1 4 19 18 
4 6 11 16 14 
4 14 16 9 4 
4 17 16 9 2 
4 19 21 10 5 
4 8 9 21 22 
4 3 8 22 20 
4 20 19 21 22 
4 0 14 24 23 
4 4 14 24 19 
4 19 24 13 5 
4 0 1 18 23 
4 23 24 19 18 
4 6 14 24 25 
4 25 24 13 7 
4 6 11 26 25 
4 25 26 12 7 
4 11 16 27 26 
4 26 27 15 12 
4 14 16 27 24 
4 24 27 15 13 
4 25 26 27 24 
4 9 16 27 21 
4 21 27 15 10 
4 24 27 21 19 
4 16 17 28 27 
4 2 9 21 29 
4 2 17 28 29 
4 28 27 21 29 

CELL_TYPES 35
9 
9 
9 
9 
9 
9 
9 
9 
9 
9 
9 
9 
9 
9 
9 
9 
9 
9 
9 
9 
9 
9 
9 
9 
9 
9 
9 
9 
9 
9 
9 
9 
9 
9 
9 
POINT_DATA 30
SCALARS GMDS_ID int 1
LOOKUP_TABLE default
7 9 10 13 14 15 16 17 19 20 21 22 23 24 25 26 27 29 31 32 33 34 35 36 37 39 40 41 43 44 
SCALARS geom_link_dim int 1
LOOKUP_TABLE default
0 0 0 0 1 1 0 0 0 1 1 0 0 1 1 1 1 0 1 1 1 1 1 1 1 1 1 1 1 1 
SCALARS geom_link_id int 1
LOOKUP_TABLE default
-1 -1 -1 -1 31 9 -1 -1 -1 32 7 -1 -1 4 28 3 27 -1 17 10 21 8 22 18 1 5 6 2 16 15 


CELL_DATA 35
SCALARS GMDS_ID int 1
LOOKUP_TABLE default
0 4 7 12 18 29 33 38 39 46 48 49 51 53 54 56 57 58 60 63 64 68 69 70 71 72 73 74 75 76 77 80 85 87 89 

SCALARS geom_link_dim int 1
LOOKUP_TABLE default
0 0 0 0 0 0 0 0 0 0 0 0 0 0 0 0 0 0 0 0 0 0 0 0 0 0 0 0 0 0 0 0 0 0 0 

SCALARS geom_link_id int 1
LOOKUP_TABLE default
0 0 0 0 0 0 0 0 0 0 0 0 0 0 0 0 0 0 0 0 0 0 0 0 0 0 0 0 0 0 0 0 0 0 0 

