# vtk DataFile Version 3.0
Generated by GMDS VTK Writer

ASCII
DATASET UNSTRUCTURED_GRID
POINTS 41 float
5 0 5
10 0 5
-5 10 10
-5 5 -5
-5 5 10
5 -5 -5
5 5 10
5 5 -5
5 10 10
0 -5 -5
0 5 10
0 5 -5
0 10 10
5 0 10
5 0 -5
0 0 -5
0 0 10
-5 -4.44089209850063e-16 -5
5 5 5
10 5 5
5 -5 5
5 10 5
0 10 5
0 5 5
-5 10 5
-5 5 5
-5 0 5
0 0 5
0 -5 5
10 0 0
5 0 0
5 5 0
10 5 0
5 -5 0
5 10 0
0 10 0
0 5 0
-5 5 0
-5 0 0
0 0 0
0 -5 0

CELLS 53 265
4 34 35 22 21 
4 31 34 21 18 
4 1 0 18 19 
4 18 0 13 6 
4 33 30 0 20 
4 5 14 30 33 
4 29 30 31 32 
4 29 32 19 1 
4 6 8 12 10 
4 10 12 2 4 
4 32 31 18 19 
4 31 30 0 18 
4 7 14 30 31 
4 17 15 11 3 
4 29 30 0 1 
4 13 16 10 6 
4 5 9 15 14 
4 14 15 11 7 
4 18 21 8 6 
4 21 22 12 8 
4 23 22 12 10 
4 18 23 10 6 
4 18 21 22 23 
4 24 22 12 2 
4 24 25 4 2 
4 25 23 10 4 
4 23 22 24 25 
4 23 27 16 10 
4 26 27 23 25 
4 0 27 16 13 
4 20 28 27 0 
4 0 27 23 18 
4 36 35 22 23 
4 7 11 36 31 
4 31 36 23 18 
4 31 34 35 36 
4 3 11 36 37 
4 37 36 23 25 
4 15 17 38 39 
4 39 38 26 27 
4 11 15 39 36 
4 36 39 27 23 
4 3 17 38 37 
4 37 38 26 25 
4 38 39 36 37 
4 5 9 40 33 
4 33 40 28 20 
4 9 15 39 40 
4 40 39 27 28 
4 14 15 39 30 
4 30 39 27 0 
4 33 40 39 30 
4 30 39 36 31 

CELL_TYPES 53
9 
9 
9 
9 
9 
9 
9 
9 
9 
9 
9 
9 
9 
9 
9 
9 
9 
9 
9 
9 
9 
9 
9 
9 
9 
9 
9 
9 
9 
9 
9 
9 
9 
9 
9 
9 
9 
9 
9 
9 
9 
9 
9 
9 
9 
9 
9 
9 
9 
9 
9 
9 
9 
POINT_DATA 41
SCALARS GMDS_ID int 1
LOOKUP_TABLE default
0 4 5 8 9 12 14 15 16 18 20 21 22 24 25 26 27 29 30 31 33 34 35 36 37 38 39 40 41 42 43 44 45 47 48 49 50 52 53 54 55 
SCALARS geom_link_dim_0 int 1
LOOKUP_TABLE default
0 0 0 0 0 0 0 0 0 0 0 0 0 0 0 0 0 0 0 0 0 0 0 0 0 0 0 0 0 0 0 0 0 0 0 0 0 0 0 0 0 
SCALARS geom_link_id_0 int 1
LOOKUP_TABLE default
0 0 0 0 0 0 0 0 0 0 0 0 0 0 0 0 0 0 0 0 0 0 0 0 0 0 0 0 0 0 0 0 0 0 0 0 0 0 0 0 0 


CELL_DATA 53
SCALARS GMDS_ID int 1
LOOKUP_TABLE default
0 4 12 13 15 16 24 25 29 30 31 35 39 41 42 44 45 46 51 53 55 57 58 60 62 64 65 69 72 78 79 80 82 83 84 85 90 91 93 94 95 96 97 98 99 100 101 102 103 104 105 106 107 

SCALARS geom_link_dim_0 int 1
LOOKUP_TABLE default
0 0 0 0 0 0 0 0 0 0 0 0 0 0 0 0 0 0 0 0 0 0 0 0 0 0 0 0 0 0 0 0 0 0 0 0 0 0 0 0 0 0 0 0 0 0 0 0 0 0 0 0 0 

SCALARS geom_link_id_0 int 1
LOOKUP_TABLE default
0 0 0 0 0 0 0 0 0 0 0 0 0 0 0 0 0 0 0 0 0 0 0 0 0 0 0 0 0 0 0 0 0 0 0 0 0 0 0 0 0 0 0 0 0 0 0 0 0 0 0 0 0 

