# vtk DataFile Version 3.0
Generated by GMDS VTK Writer

ASCII
DATASET UNSTRUCTURED_GRID
POINTS 45 float
5 -5 0
10 -5 -5
10 -5 -8.88178419700125e-16
5 -5 -5
5 -5 10
5 10 10
10 5 -5
5 5 10
5 5 -5
-5 5 10
5 5 0
10 5 0
-5 -5 -8.88178419700125e-16
-5 5 0
5 10 0
0 5 -5
0 5 0
0 -5 0
0 5 10
8.88178419700125e-16 -5 10
0 10 0
8.88178419700125e-16 10 10
10 0 0
5 0 0
5 0 10
0 0 -5
0 0 0
5 0 -5
-5 0 0
10 -4.44089209850063e-16 -5
-5 -4.44089209850063e-16 10
0 0 10
10 0 5
5 0 5
5 5 5
10 5 5
5 -5 5
-5 5 5
0 5 5
0 10 5
5 10 5
-5 -5 5
0 -5 5
0 0 5
-5 0 5

CELLS 61 305
4 0 17 26 23 
4 25 26 16 15 
4 36 33 23 0 
4 4 24 33 36 
4 6 8 10 11 
4 32 33 34 35 
4 35 32 22 11 
4 1 3 0 2 
4 15 16 10 8 
4 35 34 10 11 
4 34 33 23 10 
4 23 22 11 10 
4 0 2 22 23 
4 7 24 33 34 
4 33 32 22 23 
4 16 20 14 10 
4 21 18 7 5 
4 23 26 16 10 
4 0 3 27 23 
4 23 27 8 10 
4 27 25 15 8 
4 25 26 23 27 
4 12 17 26 28 
4 28 26 16 13 
4 1 3 27 29 
4 29 27 8 6 
4 1 2 22 29 
4 29 22 11 6 
4 29 27 23 22 
4 30 31 18 9 
4 4 19 31 24 
4 24 31 18 7 
4 9 18 38 37 
4 37 38 16 13 
4 18 21 39 38 
4 38 39 20 16 
4 7 18 38 34 
4 34 38 16 10 
4 5 7 34 40 
4 40 34 10 14 
4 5 21 39 40 
4 40 39 20 14 
4 39 38 34 40 
4 41 42 17 12 
4 19 31 43 42 
4 42 43 26 17 
4 30 31 43 44 
4 44 43 26 28 
4 41 44 28 12 
4 41 42 43 44 
4 18 31 43 38 
4 38 43 26 16 
4 9 30 44 37 
4 37 44 28 13 
4 44 43 38 37 
4 4 19 42 36 
4 36 42 17 0 
4 24 31 43 33 
4 33 43 26 23 
4 36 42 43 33 
4 33 43 38 34 

CELL_TYPES 61
9 
9 
9 
9 
9 
9 
9 
9 
9 
9 
9 
9 
9 
9 
9 
9 
9 
9 
9 
9 
9 
9 
9 
9 
9 
9 
9 
9 
9 
9 
9 
9 
9 
9 
9 
9 
9 
9 
9 
9 
9 
9 
9 
9 
9 
9 
9 
9 
9 
9 
9 
9 
9 
9 
9 
9 
9 
9 
9 
9 
9 
POINT_DATA 45
SCALARS GMDS_ID int 1
LOOKUP_TABLE default
2 3 6 9 10 11 12 14 15 16 18 19 20 21 22 25 26 27 28 29 31 32 33 34 35 37 38 39 41 42 43 44 45 46 47 48 50 52 53 54 55 56 57 58 59 
SCALARS geom_link_dim_0 int 1
LOOKUP_TABLE default
0 0 0 0 0 0 0 0 0 0 0 0 0 0 0 0 0 0 0 0 0 0 0 0 0 0 0 0 0 0 0 0 0 0 0 0 0 0 0 0 0 0 0 0 0 
SCALARS geom_link_id_0 int 1
LOOKUP_TABLE default
0 0 0 0 0 0 0 0 0 0 0 0 0 0 0 0 0 0 0 0 0 0 0 0 0 0 0 0 0 0 0 0 0 0 0 0 0 0 0 0 0 0 0 0 0 


CELL_DATA 61
SCALARS GMDS_ID int 1
LOOKUP_TABLE default
1 3 8 10 14 16 17 18 19 26 30 35 38 40 41 48 53 57 58 59 61 62 65 66 70 71 72 73 74 80 82 83 86 87 88 89 93 94 95 96 97 98 99 101 102 103 104 105 107 108 109 110 111 112 113 114 115 116 117 118 119 

SCALARS geom_link_dim_0 int 1
LOOKUP_TABLE default
0 0 0 0 0 0 0 0 0 0 0 0 0 0 0 0 0 0 0 0 0 0 0 0 0 0 0 0 0 0 0 0 0 0 0 0 0 0 0 0 0 0 0 0 0 0 0 0 0 0 0 0 0 0 0 0 0 0 0 0 0 

SCALARS geom_link_id_0 int 1
LOOKUP_TABLE default
0 0 0 0 0 0 0 0 0 0 0 0 0 0 0 0 0 0 0 0 0 0 0 0 0 0 0 0 0 0 0 0 0 0 0 0 0 0 0 0 0 0 0 0 0 0 0 0 0 0 0 0 0 0 0 0 0 0 0 0 0 

