# vtk DataFile Version 3.0
Generated by GMDS VTK Writer

ASCII
DATASET UNSTRUCTURED_GRID
POINTS 61 float
-5 10 -5
10 10 -5
10 -5 -5
-5 10 10
10 10 10
10 -5 10
-5 -8.88178419700125e-16 -5
-5 -8.88178419700125e-16 10
10 -8.88178419700125e-16 10
10 -8.88178419700125e-16 -5
-5 -5 -8.88178419700125e-16
10 -5 -8.88178419700125e-16
10 0 0
-5 0 0
10 10 -8.88178419700125e-16
-5 10 -8.88178419700125e-16
-8.88178419700125e-16 -5 -5
0 0 -5
0 0 0
0 -5 0
0 0 10
-8.88178419700125e-16 10 -5
0 10 0
-8.88178419700125e-16 10 10
-5 5 -5
-5 5 0
-4.44089209850063e-16 5 0
0 5 -5
10 5 0
10 5 -5
-5 5 10
0 5 10
10 5 10
0 -5 5
0 0 5
10 0 5
10 -5 5
10 5 5
-2.22044604925031e-16 5 5
-5 -5 5
-5 0 5
10 10 5
0 10 5
-5 5 5
-5 10 5
5 5 -5
5 5 0
5 0 0
5 0 -5
5 10 -5
5 10 0
5 5 5
5 0 5
5 -5 -5
5 -5 0
5 -5 5
5 -5 10
5 0 10
5 5 10
5 10 5
5 10 10

CELLS 99 495
4 26 38 51 46 
4 2 9 12 11 
4 1 14 28 29 
4 10 13 18 19 
4 24 25 26 27 
4 6 13 18 17 
4 24 27 17 6 
4 0 21 27 24 
4 27 26 18 17 
4 21 22 26 27 
4 49 50 46 45 
4 25 26 18 13 
4 18 26 38 34 
4 15 22 26 25 
4 24 25 13 6 
4 0 15 25 24 
4 16 17 18 19 
4 49 45 29 1 
4 21 27 45 49 
4 50 46 28 14 
4 22 26 46 50 
4 49 50 14 1 
4 36 35 8 5 
4 11 12 35 36 
4 0 15 22 21 
4 21 22 50 49 
4 45 46 47 48 
4 18 19 33 34 
4 29 28 12 9 
4 48 45 29 9 
4 17 27 45 48 
4 48 47 12 9 
4 17 18 47 48 
4 3 23 31 30 
4 30 31 20 7 
4 47 46 28 12 
4 18 26 46 47 
4 46 45 29 28 
4 26 27 45 46 
4 34 38 31 20 
4 12 28 37 35 
4 35 37 32 8 
4 10 13 40 39 
4 13 18 34 40 
4 40 34 20 7 
4 10 19 33 39 
4 39 40 34 33 
4 22 26 38 42 
4 42 38 31 23 
4 14 28 37 41 
4 41 37 32 4 
4 25 26 38 43 
4 43 38 31 30 
4 13 25 43 40 
4 40 43 30 7 
4 43 38 34 40 
4 15 22 42 44 
4 44 42 23 3 
4 15 25 43 44 
4 44 43 30 3 
4 44 42 38 43 
4 46 51 37 28 
4 34 38 51 52 
4 52 51 37 35 
4 18 34 52 47 
4 47 52 35 12 
4 47 46 51 52 
4 16 17 48 53 
4 53 48 9 2 
4 18 19 54 47 
4 47 54 11 12 
4 16 19 54 53 
4 53 54 11 2 
4 53 48 47 54 
4 33 34 52 55 
4 55 52 35 36 
4 56 55 36 5 
4 57 56 5 8 
4 20 34 52 57 
4 57 52 35 8 
4 52 55 56 57 
4 19 33 55 54 
4 54 55 36 11 
4 47 54 55 52 
4 31 38 51 58 
4 58 51 37 32 
4 20 31 58 57 
4 57 58 32 8 
4 52 51 58 57 
4 38 42 59 51 
4 51 59 41 37 
4 22 42 59 50 
4 50 59 41 14 
4 50 46 51 59 
4 23 31 58 60 
4 60 58 32 4 
4 23 42 59 60 
4 60 59 41 4 
4 59 51 58 60 

CELL_TYPES 99
9 
9 
9 
9 
9 
9 
9 
9 
9 
9 
9 
9 
9 
9 
9 
9 
9 
9 
9 
9 
9 
9 
9 
9 
9 
9 
9 
9 
9 
9 
9 
9 
9 
9 
9 
9 
9 
9 
9 
9 
9 
9 
9 
9 
9 
9 
9 
9 
9 
9 
9 
9 
9 
9 
9 
9 
9 
9 
9 
9 
9 
9 
9 
9 
9 
9 
9 
9 
9 
9 
9 
9 
9 
9 
9 
9 
9 
9 
9 
9 
9 
9 
9 
9 
9 
9 
9 
9 
9 
9 
9 
9 
9 
9 
9 
9 
9 
9 
9 
POINT_DATA 61
SCALARS GMDS_ID int 1
LOOKUP_TABLE default
1 2 3 5 6 7 8 9 10 11 12 13 14 15 16 17 18 19 20 21 22 24 25 26 27 28 29 30 31 32 33 34 35 36 37 38 39 40 41 42 43 44 45 46 47 48 49 50 51 52 53 54 55 56 57 58 59 60 61 62 63 
SCALARS geom_link_dim_0 int 1
LOOKUP_TABLE default
0 0 0 0 0 0 0 0 0 0 0 0 0 0 0 0 0 0 0 0 0 0 0 0 0 0 0 0 0 0 0 0 0 0 0 0 0 0 0 0 0 0 0 0 0 0 0 0 0 0 0 0 0 0 0 0 0 0 0 0 0 
SCALARS geom_link_id_0 int 1
LOOKUP_TABLE default
0 0 0 0 0 0 0 0 0 0 0 0 0 0 0 0 0 0 0 0 0 0 0 0 0 0 0 0 0 0 0 0 0 0 0 0 0 0 0 0 0 0 0 0 0 0 0 0 0 0 0 0 0 0 0 0 0 0 0 0 0 


CELL_DATA 99
SCALARS GMDS_ID int 1
LOOKUP_TABLE default
0 1 3 6 9 10 12 13 15 16 18 19 20 22 23 26 28 29 30 33 34 35 38 39 40 45 46 47 48 52 53 54 55 56 57 58 59 60 63 64 65 66 68 70 71 72 74 77 78 79 80 82 83 84 85 86 87 88 89 90 91 92 93 94 95 96 97 98 99 100 101 102 103 104 105 106 108 110 111 112 113 114 115 116 117 118 119 120 121 122 123 124 125 126 127 128 129 130 131 

SCALARS geom_link_dim_0 int 1
LOOKUP_TABLE default
0 0 0 0 0 0 0 0 0 0 0 0 0 0 0 0 0 0 0 0 0 0 0 0 0 0 0 0 0 0 0 0 0 0 0 0 0 0 0 0 0 0 0 0 0 0 0 0 0 0 0 0 0 0 0 0 0 0 0 0 0 0 0 0 0 0 0 0 0 0 0 0 0 0 0 0 0 0 0 0 0 0 0 0 0 0 0 0 0 0 0 0 0 0 0 0 0 0 0 

SCALARS geom_link_id_0 int 1
LOOKUP_TABLE default
0 0 0 0 0 0 0 0 0 0 0 0 0 0 0 0 0 0 0 0 0 0 0 0 0 0 0 0 0 0 0 0 0 0 0 0 0 0 0 0 0 0 0 0 0 0 0 0 0 0 0 0 0 0 0 0 0 0 0 0 0 0 0 0 0 0 0 0 0 0 0 0 0 0 0 0 0 0 0 0 0 0 0 0 0 0 0 0 0 0 0 0 0 0 0 0 0 0 0 

