# vtk DataFile Version 3.0
Generated by GMDS VTK Writer

ASCII
DATASET UNSTRUCTURED_GRID
POINTS 22 float
-5 0 0
-5 10 0
10 10 0
10 0 0
-5 0 10
-5 10 10
0 10 0
-4.44089209850063e-16 0 0
-5 0 5
10 0 5
10 10 5
-5 10 5
5 0 0
5 10 0
5 10 5
5 0 5
5 10 10
5 0 10
0 10 5
0 0 5
-4.44089209850063e-16 10 10
0 0 10

CELLS 5 45
8 12 13 14 15 3 2 10 9 
8 0 1 11 8 7 6 18 19 
8 7 6 18 19 12 13 14 15 
8 8 11 5 4 19 18 20 21 
8 19 18 20 21 15 14 16 17 

CELL_TYPES 5
12 
12 
12 
12 
12 
POINT_DATA 22
SCALARS GMDS_ID int 1
LOOKUP_TABLE default
0 1 2 3 4 5 6 7 8 9 10 11 12 13 14 15 16 17 18 19 20 21 
SCALARS geom_link_dim int 1
LOOKUP_TABLE default
1 0 0 1 0 0 1 2 1 1 0 0 2 1 1 1 0 1 1 1 0 1 
SCALARS geom_link_id int 1
LOOKUP_TABLE default
5 -1 -1 6 -1 -1 17 17 7 10 -1 -1 17 16 22 9 -1 8 21 1 -1 2 


CELL_DATA 5
SCALARS GMDS_ID int 1
LOOKUP_TABLE default
1 3 4 5 6 

SCALARS is_in int 1
LOOKUP_TABLE default
0 0 1 0 0 

SCALARS geom_link_dim int 1
LOOKUP_TABLE default
0 0 0 0 0 

SCALARS geom_link_id int 1
LOOKUP_TABLE default
0 -1 -1 -1 -1 

