# vtk DataFile Version 3.0
Generated by GMDS VTK Writer

ASCII
DATASET UNSTRUCTURED_GRID
POINTS 31 float
-5 0 0
-5 10 0
10 5 5
10 0 0
-5 0 10
-5 10 10
10 0 5
0 5 0
-5 5 0
-5 5 10
8.88178419700125e-16 0 0
10 5 0
5 0 0
5 0 10
5 5 10
5 5 0
5 10 10
5 10 0
5 5 5
5 0 5
-5 5 5
-5 0 5
5 10 5
-5 10 5
0 5 5
0 0 5
0 5 10
0 0 10
0 10 0
0 10 5
8.88178419700125e-16 10 10

CELLS 9 81
8 25 24 26 27 19 18 14 13 
8 0 8 20 21 10 7 24 25 
8 21 20 9 4 25 24 26 27 
8 3 11 15 12 6 2 18 19 
8 10 7 24 25 12 15 18 19 
8 1 8 20 23 28 7 24 29 
8 28 7 24 29 17 15 18 22 
8 23 20 9 5 29 24 26 30 
8 29 24 26 30 22 18 14 16 

CELL_TYPES 9
12 
12 
12 
12 
12 
12 
12 
12 
12 
POINT_DATA 31
SCALARS GMDS_ID int 1
LOOKUP_TABLE default
0 1 2 3 4 5 6 7 8 9 10 11 12 13 14 15 16 17 18 19 20 21 22 23 24 25 26 27 28 29 30 
SCALARS geom_link_dim int 1
LOOKUP_TABLE default
1 0 1 1 0 0 1 1 1 0 2 1 2 1 1 1 0 1 1 1 1 1 1 0 0 1 1 1 1 1 0 
SCALARS geom_link_id int 1
LOOKUP_TABLE default
5 -1 20 6 -1 -1 10 18 19 -1 17 14 17 8 11 15 -1 16 12 9 13 7 22 -1 -1 1 3 2 17 21 -1 


CELL_DATA 9
SCALARS GMDS_ID int 1
LOOKUP_TABLE default
0 2 3 4 5 9 10 11 12 

SCALARS is_in int 1
LOOKUP_TABLE default
1 1 0 1 1 0 1 0 0 

SCALARS geom_link_dim int 1
LOOKUP_TABLE default
0 0 0 0 0 0 0 0 0 

SCALARS geom_link_id int 1
LOOKUP_TABLE default
-1 -1 -1 0 -1 -1 -1 -1 -1 

