# vtk DataFile Version 3.0
Generated by GMDS VTK Writer

ASCII
DATASET UNSTRUCTURED_GRID
POINTS 26 float
-5 0 0
-5 10 0
10 0 0
0 5 5
-4.44089209850063e-16 0 0
0 10 0
-5 0 5
10 0 5
-5 10 5
5 0 0
5 10 0
5 10 5
5 0 5
0 5 0
5 0 10
-5 5 0
-5 5 5
5 5 5
5 5 0
10 5 5
10 5 0
5 5 10
0 10 5
0 0 5
0 0 10
0 5 10

CELLS 6 54
8 24 23 3 25 14 12 17 21 
8 4 23 3 13 9 12 17 18 
8 9 12 7 2 18 17 19 20 
8 15 16 8 1 13 3 22 5 
8 13 3 22 5 18 17 11 10 
8 0 6 16 15 4 23 3 13 

CELL_TYPES 6
12 
12 
12 
12 
12 
12 
POINT_DATA 26
SCALARS GMDS_ID int 1
LOOKUP_TABLE default
0 1 3 5 6 7 8 9 11 12 13 14 15 16 17 18 19 20 21 22 23 25 26 27 28 29 
SCALARS geom_link_dim int 1
LOOKUP_TABLE default
1 0 1 1 2 1 1 1 0 2 1 1 1 1 1 1 1 1 1 1 1 1 1 1 1 1 
SCALARS geom_link_id int 1
LOOKUP_TABLE default
5 -1 6 4 17 17 7 10 -1 17 16 22 9 18 8 19 13 12 15 20 14 11 21 1 2 3 


CELL_DATA 6
SCALARS GMDS_ID int 1
LOOKUP_TABLE default
3 5 6 9 10 11 

SCALARS is_in int 1
LOOKUP_TABLE default
1 1 1 0 1 1 

SCALARS geom_link_dim int 1
LOOKUP_TABLE default
0 0 0 0 0 0 

SCALARS geom_link_id int 1
LOOKUP_TABLE default
0 0 0 0 0 0 

