# vtk DataFile Version 3.0
Generated by GMDS VTK Writer

ASCII
DATASET UNSTRUCTURED_GRID
POINTS 26 float
-5 0 0
10 0 0
-5 0 10
0 10 0
8.88178419700125e-16 0 0
0 0 10
10 5 0
0 5 10
0 5 0
-5 5 10
-5 5 0
5 5 0
5 5 10
5 10 0
5 0 0
5 0 10
10 5 5
5 5 5
5 10 5
-5 0 5
0 0 5
0 5 5
-5 5 5
0 10 5
10 0 5
5 0 5

CELLS 6 54
8 0 4 8 10 19 20 21 22 
8 19 20 21 22 2 5 7 9 
8 13 11 8 3 18 17 21 23 
8 1 6 11 14 24 16 17 25 
8 14 11 8 4 25 17 21 20 
8 25 17 21 20 15 12 7 5 

CELL_TYPES 6
12 
12 
12 
12 
12 
12 
POINT_DATA 26
SCALARS GMDS_ID int 1
LOOKUP_TABLE default
0 3 4 8 9 10 12 14 15 16 17 18 19 21 22 23 25 26 27 28 29 30 31 32 34 35 
SCALARS geom_link_dim_0 int 1
LOOKUP_TABLE default
0 0 0 0 0 0 0 0 0 0 0 0 0 0 0 0 0 0 0 0 0 0 0 0 0 0 
SCALARS geom_link_id_0 int 1
LOOKUP_TABLE default
0 0 0 0 0 0 0 0 0 0 0 0 0 0 0 0 0 0 0 0 0 0 0 0 0 0 


CELL_DATA 6
SCALARS GMDS_ID int 1
LOOKUP_TABLE default
8 9 12 14 16 17 

SCALARS geom_link_dim_0 int 1
LOOKUP_TABLE default
0 0 0 0 0 0 

SCALARS geom_link_id_0 int 1
LOOKUP_TABLE default
0 0 0 0 0 0 

