# vtk DataFile Version 3.0
Generated by GMDS VTK Writer

ASCII
DATASET UNSTRUCTURED_GRID
POINTS 30 float
-5 0 0
-5 10 0
10 10 0
10 0 0
-5 0 10
0 5 5
-4.44089209850063e-16 0 0
0 10 0
-5 0 5
10 0 5
10 10 5
-5 10 5
5 0 0
5 10 0
5 10 5
5 0 5
0 5 0
5 0 10
-5 5 0
-5 5 5
5 5 5
5 5 0
10 5 5
10 5 0
-5 5 10
5 5 10
0 10 5
0 0 5
0 0 10
0 5 10

CELLS 8 72
8 28 27 5 29 17 15 20 25 
8 4 8 19 24 28 27 5 29 
8 6 27 5 16 12 15 20 21 
8 12 15 9 3 21 20 22 23 
8 21 20 22 23 13 14 10 2 
8 18 19 11 1 16 5 26 7 
8 16 5 26 7 21 20 14 13 
8 0 8 19 18 6 27 5 16 

CELL_TYPES 8
12 
12 
12 
12 
12 
12 
12 
12 
POINT_DATA 30
SCALARS GMDS_ID int 1
LOOKUP_TABLE default
0 1 2 3 4 5 6 7 8 9 10 11 12 13 14 15 16 17 18 19 20 21 22 23 24 25 26 27 28 29 
SCALARS geom_link_dim int 1
LOOKUP_TABLE default
1 0 0 1 0 1 2 1 1 1 0 0 2 1 1 1 1 1 1 1 1 1 1 1 0 1 1 1 1 1 
SCALARS geom_link_id int 1
LOOKUP_TABLE default
5 -1 -1 6 -1 4 17 17 7 10 -1 -1 17 16 22 9 18 8 19 13 12 15 20 14 -1 11 21 1 2 3 


CELL_DATA 8
SCALARS GMDS_ID int 1
LOOKUP_TABLE default
3 4 5 6 7 9 10 11 

SCALARS is_in int 1
LOOKUP_TABLE default
1 0 1 1 0 0 1 1 

SCALARS geom_link_dim int 1
LOOKUP_TABLE default
0 0 0 0 0 0 0 0 

SCALARS geom_link_id int 1
LOOKUP_TABLE default
-1 -1 -1 0 0 -1 -1 -1 

