# vtk DataFile Version 3.0
Generated by GMDS VTK Writer

ASCII
DATASET UNSTRUCTURED_GRID
POINTS 24 float
-5 0 0
10 0 0
0 5 5
-4.44089209850063e-16 0 0
0 10 0
-5 0 5
10 0 5
5 0 0
5 10 0
5 10 5
5 0 5
0 5 0
5 0 10
-5 5 0
-5 5 5
5 5 5
5 5 0
10 5 5
10 5 0
5 5 10
0 10 5
0 0 5
0 0 10
0 5 10

CELLS 5 45
8 22 21 2 23 12 10 15 19 
8 3 21 2 11 7 10 15 16 
8 7 10 6 1 16 15 17 18 
8 11 2 20 4 16 15 9 8 
8 0 5 14 13 3 21 2 11 

CELL_TYPES 5
12 
12 
12 
12 
12 
POINT_DATA 24
SCALARS GMDS_ID int 1
LOOKUP_TABLE default
0 3 5 6 7 8 9 12 13 14 15 16 17 18 19 20 21 22 23 25 26 27 28 29 
SCALARS geom_link_dim int 1
LOOKUP_TABLE default
1 1 1 2 1 1 1 2 1 1 1 1 1 1 1 1 1 1 1 1 1 1 1 1 
SCALARS geom_link_id int 1
LOOKUP_TABLE default
5 6 4 17 17 7 10 17 16 22 9 18 8 19 13 12 15 20 14 11 21 1 2 3 


CELL_DATA 5
SCALARS GMDS_ID int 1
LOOKUP_TABLE default
3 5 6 10 11 

SCALARS is_in int 1
LOOKUP_TABLE default
1 1 1 1 1 

SCALARS geom_link_dim int 1
LOOKUP_TABLE default
4 4 4 4 4 

SCALARS geom_link_id int 1
LOOKUP_TABLE default
1 1 1 1 1 

