# vtk DataFile Version 3.0
Generated by GMDS VTK Writer

ASCII
DATASET UNSTRUCTURED_GRID
POINTS 28 float
-5 0 0
-5 10 0
10 0 0
-5 0 10
5 10 0
5 0 0
5 0 10
0 10 0
8.88178419700125e-16 0 0
0 0 10
0 10 5
0 0 5
-5 0 5
-5 10 5
5 10 5
5 0 5
10 0 5
-5 5 5
0 5 5
0 5 10
-5 5 10
-5 5 0
0 5 0
5 5 0
5 5 5
5 5 10
10 5 0
10 5 5

CELLS 7 63
8 12 11 9 3 17 18 19 20 
8 0 8 11 12 21 22 18 17 
8 21 22 18 17 1 7 10 13 
8 5 8 11 15 23 22 18 24 
8 23 22 18 24 4 7 10 14 
8 15 11 9 6 24 18 19 25 
8 2 5 15 16 26 23 24 27 

CELL_TYPES 7
12 
12 
12 
12 
12 
12 
12 
POINT_DATA 28
SCALARS GMDS_ID int 1
LOOKUP_TABLE default
0 1 3 4 8 9 10 12 13 14 16 17 18 19 20 21 23 24 25 26 27 28 29 30 31 32 33 34 
SCALARS geom_link_dim int 1
LOOKUP_TABLE default
1 0 1 0 1 2 1 1 2 1 1 1 1 0 1 1 1 1 1 1 0 1 1 1 1 1 1 1 
SCALARS geom_link_id int 1
LOOKUP_TABLE default
5 -1 6 -1 16 17 8 17 17 2 21 1 7 -1 22 9 10 13 4 3 -1 19 18 15 12 11 14 20 


CELL_DATA 7
SCALARS GMDS_ID int 1
LOOKUP_TABLE default
1 3 9 10 11 12 14 

SCALARS is_in int 1
LOOKUP_TABLE default
0 1 0 1 1 1 1 

SCALARS geom_link_dim int 1
LOOKUP_TABLE default
0 0 0 0 0 0 0 

SCALARS geom_link_id int 1
LOOKUP_TABLE default
0 0 0 0 0 0 0 

