# vtk DataFile Version 3.0
Generated by GMDS VTK Writer

ASCII
DATASET UNSTRUCTURED_GRID
POINTS 24 float
-5 0 0
10 5 5
10 0 0
10 0 5
0 5 0
-5 5 0
8.88178419700125e-16 0 0
10 5 0
5 0 0
5 0 10
5 5 10
5 5 0
5 10 0
5 5 5
5 0 5
-5 5 5
-5 0 5
5 10 5
0 5 5
0 0 5
0 5 10
0 0 10
0 10 0
0 10 5

CELLS 5 45
8 19 18 20 21 14 13 10 9 
8 0 5 15 16 6 4 18 19 
8 2 7 11 8 3 1 13 14 
8 6 4 18 19 8 11 13 14 
8 22 4 18 23 12 11 13 17 

CELL_TYPES 5
12 
12 
12 
12 
12 
POINT_DATA 24
SCALARS GMDS_ID int 1
LOOKUP_TABLE default
0 2 3 6 7 8 10 11 12 13 14 15 17 18 19 20 21 22 24 25 26 27 28 29 
SCALARS geom_link_dim int 1
LOOKUP_TABLE default
1 1 1 1 1 1 2 1 2 1 1 1 1 1 1 1 1 1 1 1 1 1 1 1 
SCALARS geom_link_id int 1
LOOKUP_TABLE default
5 20 6 10 18 19 17 14 17 8 11 15 16 12 9 13 7 22 4 1 3 2 17 21 


CELL_DATA 5
SCALARS GMDS_ID int 1
LOOKUP_TABLE default
0 2 4 5 10 

SCALARS is_in int 1
LOOKUP_TABLE default
1 1 1 1 1 

SCALARS geom_link_dim int 1
LOOKUP_TABLE default
4 4 4 4 4 

SCALARS geom_link_id int 1
LOOKUP_TABLE default
1 1 1 1 1 

