# vtk DataFile Version 3.0
Generated by GMDS VTK Writer

ASCII
DATASET UNSTRUCTURED_GRID
POINTS 28 float
-5 0 0
-5 10 0
10 0 0
5 5 5
10 5 5
5 10 0
5 0 0
5 0 10
5 10 10
10 0 5
5 0 5
5 10 5
-5 0 5
-5 10 5
8.88178419700125e-16 0 0
0 10 0
0 10 5
0 0 5
8.88178419700125e-16 10 10
0 0 10
5 5 10
-5 5 0
-5 5 5
0 5 5
0 5 0
10 5 0
5 5 0
0 5 10

CELLS 7 63
8 0 12 17 14 21 22 23 24 
8 21 22 23 24 1 13 16 15 
8 2 6 10 9 25 26 3 4 
8 14 17 10 6 24 23 3 26 
8 24 23 3 26 15 16 11 5 
8 19 17 10 7 27 23 3 20 
8 27 23 3 20 18 16 11 8 

CELL_TYPES 7
12 
12 
12 
12 
12 
12 
12 
POINT_DATA 28
SCALARS GMDS_ID int 1
LOOKUP_TABLE default
0 1 3 4 5 8 9 10 11 13 14 15 16 17 18 19 20 21 22 23 24 26 27 28 29 30 31 32 
SCALARS geom_link_dim int 1
LOOKUP_TABLE default
1 0 1 1 1 1 2 1 0 1 1 1 1 0 2 1 1 1 0 1 1 1 1 1 1 1 1 1 
SCALARS geom_link_id int 1
LOOKUP_TABLE default
5 -1 6 12 20 16 17 8 -1 10 9 22 7 -1 17 17 21 1 -1 2 11 19 13 4 18 14 15 3 


CELL_DATA 7
SCALARS GMDS_ID int 1
LOOKUP_TABLE default
4 8 9 11 12 13 14 

SCALARS is_in int 1
LOOKUP_TABLE default
1 0 1 1 1 1 0 

SCALARS geom_link_dim int 1
LOOKUP_TABLE default
0 0 0 0 0 0 0 

SCALARS geom_link_id int 1
LOOKUP_TABLE default
0 0 0 0 0 0 0 

