# vtk DataFile Version 3.0
Generated by GMDS VTK Writer

ASCII
DATASET UNSTRUCTURED_GRID
POINTS 24 float
-5 0 0
10 0 0
5 10 0
5 0 0
5 0 10
10 5 0
5 5 10
5 5 0
-5 5 0
8.88178419700125e-16 0 0
0 0 10
0 5 10
0 5 0
0 10 0
5 0 5
5 5 5
0 5 5
0 0 5
10 0 5
10 5 5
5 10 5
-5 5 5
-5 0 5
0 10 5

CELLS 5 45
8 14 15 16 17 4 6 11 10 
8 3 7 12 9 14 15 16 17 
8 1 3 7 5 18 14 15 19 
8 9 12 8 0 17 16 21 22 
8 2 7 12 13 20 15 16 23 

CELL_TYPES 5
12 
12 
12 
12 
12 
POINT_DATA 24
SCALARS GMDS_ID int 1
LOOKUP_TABLE default
0 3 8 9 10 12 14 15 17 18 19 20 21 23 24 25 26 27 28 29 30 32 33 34 
SCALARS geom_link_dim int 1
LOOKUP_TABLE default
1 1 1 2 1 1 1 1 1 2 1 1 1 1 1 1 1 1 1 1 1 1 1 1 
SCALARS geom_link_id int 1
LOOKUP_TABLE default
5 6 16 17 8 14 11 15 19 17 2 3 18 17 9 12 4 1 10 20 22 13 7 21 


CELL_DATA 5
SCALARS GMDS_ID int 1
LOOKUP_TABLE default
4 5 8 12 14 

SCALARS is_in int 1
LOOKUP_TABLE default
1 1 1 1 1 

SCALARS geom_link_dim int 1
LOOKUP_TABLE default
4 4 4 4 4 

SCALARS geom_link_id int 1
LOOKUP_TABLE default
1 1 1 1 1 

