# vtk DataFile Version 3.0
Generated by GMDS VTK Writer

ASCII
DATASET UNSTRUCTURED_GRID
POINTS 24 float
-5 0 0
10 0 0
-5 0 5
10 0 5
-8.88178419700125e-16 0 0
0 10 0
0 10 5
0 0 5
0 0 10
5 0 0
5 10 0
5 10 5
5 0 5
5 0 10
0 5 0
0 5 5
5 5 5
5 5 0
-5 5 0
-5 5 5
0 5 10
10 5 5
10 5 0
5 5 10

CELLS 5 45
8 14 15 16 17 5 6 11 10 
8 4 7 12 9 14 15 16 17 
8 0 2 7 4 18 19 15 14 
8 9 12 3 1 17 16 21 22 
8 7 8 13 12 15 20 23 16 

CELL_TYPES 5
12 
12 
12 
12 
12 
POINT_DATA 24
SCALARS GMDS_ID int 1
LOOKUP_TABLE default
0 3 8 9 12 13 14 15 17 18 19 20 21 23 24 25 26 27 28 29 31 32 33 34 
SCALARS geom_link_dim_0 int 1
LOOKUP_TABLE default
0 0 0 0 0 0 0 0 0 0 0 0 0 0 0 0 0 0 0 0 0 0 0 0 
SCALARS geom_link_id_0 int 1
LOOKUP_TABLE default
0 0 0 0 0 0 0 0 0 0 0 0 0 0 0 0 0 0 0 0 0 0 0 0 


CELL_DATA 5
SCALARS GMDS_ID int 1
LOOKUP_TABLE default
3 5 8 12 14 

SCALARS geom_link_dim_0 int 1
LOOKUP_TABLE default
0 0 0 0 0 

SCALARS geom_link_id_0 int 1
LOOKUP_TABLE default
0 0 0 0 0 

