# vtk DataFile Version 3.0
Generated by GMDS VTK Writer

ASCII
DATASET UNSTRUCTURED_GRID
POINTS 22 float
-5 0 0
-5 10 0
10 10 0
10 0 0
10 10 10
10 0 10
5 10 0
5 0 0
5 0 10
5 10 10
10 10 5
10 0 5
5 0 5
5 10 5
-5 0 5
-5 10 5
8.88178419700125e-16 0 0
0 10 0
0 10 5
0 0 5
8.88178419700125e-16 10 10
0 0 10

CELLS 5 45
8 2 3 7 6 10 11 12 13 
8 16 17 18 19 7 6 13 12 
8 0 1 15 14 16 17 18 19 
8 10 11 12 13 4 5 8 9 
8 19 18 20 21 12 13 9 8 

CELL_TYPES 5
12 
12 
12 
12 
12 
POINT_DATA 22
SCALARS GMDS_ID int 1
LOOKUP_TABLE default
0 1 2 3 6 7 8 9 10 11 12 13 14 15 16 17 18 19 20 21 22 23 
SCALARS geom_link_dim int 1
LOOKUP_TABLE default
1 0 0 1 0 0 1 2 1 0 0 1 1 1 1 0 2 1 1 1 0 1 
SCALARS geom_link_id int 1
LOOKUP_TABLE default
5 -1 -1 6 -1 -1 16 17 8 -1 -1 10 9 22 7 -1 17 17 21 1 -1 2 


CELL_DATA 5
SCALARS GMDS_ID int 1
LOOKUP_TABLE default
0 1 2 3 7 

SCALARS is_in int 1
LOOKUP_TABLE default
0 1 0 0 0 

SCALARS geom_link_dim int 1
LOOKUP_TABLE default
0 0 0 0 0 

SCALARS geom_link_id int 1
LOOKUP_TABLE default
0 0 0 0 0 

