# vtk DataFile Version 3.0
Generated by GMDS VTK Writer

ASCII
DATASET UNSTRUCTURED_GRID
POINTS 30 float
-5 0 0
-5 10 0
10 5 5
10 0 0
-5 10 10
10 0 5
0 5 0
-5 5 0
-5 5 10
8.88178419700125e-16 0 0
10 5 0
5 0 0
5 0 10
5 5 10
5 5 0
5 10 10
5 10 0
5 5 5
5 0 5
-5 5 5
-5 0 5
5 10 5
-5 10 5
0 5 5
0 0 5
0 5 10
0 0 10
0 10 0
0 10 5
8.88178419700125e-16 10 10

CELLS 8 72
8 24 23 25 26 18 17 13 12 
8 0 7 19 20 9 6 23 24 
8 3 10 14 11 5 2 17 18 
8 9 6 23 24 11 14 17 18 
8 1 7 19 22 27 6 23 28 
8 27 6 23 28 16 14 17 21 
8 22 19 8 4 28 23 25 29 
8 28 23 25 29 21 17 13 15 

CELL_TYPES 8
12 
12 
12 
12 
12 
12 
12 
12 
POINT_DATA 30
SCALARS GMDS_ID int 1
LOOKUP_TABLE default
0 1 2 3 5 6 7 8 9 10 11 12 13 14 15 16 17 18 19 20 21 22 23 24 25 26 27 28 29 30 
SCALARS geom_link_dim int 1
LOOKUP_TABLE default
1 0 1 1 0 1 1 1 0 2 1 2 1 1 1 0 1 1 1 1 1 1 0 1 1 1 1 1 1 0 
SCALARS geom_link_id int 1
LOOKUP_TABLE default
5 -1 20 6 -1 10 18 19 -1 17 14 17 8 11 15 -1 16 12 9 13 7 22 -1 4 1 3 2 17 21 -1 


CELL_DATA 8
SCALARS GMDS_ID int 1
LOOKUP_TABLE default
0 2 4 5 9 10 11 12 

SCALARS is_in int 1
LOOKUP_TABLE default
1 1 1 1 0 1 0 0 

SCALARS geom_link_dim int 1
LOOKUP_TABLE default
0 0 0 0 0 0 0 0 

SCALARS geom_link_id int 1
LOOKUP_TABLE default
0 0 0 0 0 0 0 0 

