# vtk DataFile Version 3.0
Generated by GMDS VTK Writer

ASCII
DATASET UNSTRUCTURED_GRID
POINTS 26 float
-5 0 0
-5 10 0
10 10 0
10 0 0
-5 0 10
-5 10 10
10 0 10
-5 0 5
10 0 5
10 10 5
-5 10 5
-5 5 0
10 5 0
10 5 5
-5 5 5
10 5 10
-5 5 10
-8.88178419700125e-16 0 0
0 0 5
0 5 5
0 5 0
0 10 5
0 10 0
0 0 10
0 5 10
-8.88178419700125e-16 10 10

CELLS 7 63
8 17 18 19 20 3 8 13 12 
8 0 7 14 11 17 18 19 20 
8 11 14 10 1 20 19 21 22 
8 20 19 21 22 12 13 9 2 
8 4 7 14 16 23 18 19 24 
8 23 18 19 24 6 8 13 15 
8 16 14 10 5 24 19 21 25 

CELL_TYPES 7
12 
12 
12 
12 
12 
12 
12 
POINT_DATA 26
SCALARS GMDS_ID int 1
LOOKUP_TABLE default
0 1 2 3 4 5 7 8 9 10 11 12 13 14 15 16 17 18 19 20 21 22 23 24 25 26 
SCALARS geom_link_dim int 1
LOOKUP_TABLE default
1 0 0 1 0 0 0 1 1 0 0 1 1 1 1 0 0 2 1 1 1 1 1 1 1 0 
SCALARS geom_link_id int 1
LOOKUP_TABLE default
5 -1 -1 6 -1 -1 -1 7 10 -1 -1 19 14 20 13 -1 -1 17 1 4 18 21 17 2 3 -1 


CELL_DATA 7
SCALARS GMDS_ID int 1
LOOKUP_TABLE default
1 2 6 7 8 9 10 

SCALARS is_in int 1
LOOKUP_TABLE default
1 1 0 0 0 0 0 

SCALARS geom_link_dim int 1
LOOKUP_TABLE default
0 0 0 0 0 0 0 

SCALARS geom_link_id int 1
LOOKUP_TABLE default
0 0 0 0 0 0 0 

