# vtk DataFile Version 3.0
Generated by GMDS VTK Writer

ASCII
DATASET UNSTRUCTURED_GRID
POINTS 22 float
-5 0 0
-5 10 0
10 10 0
10 0 0
10 0 10
-5 0 5
10 0 5
10 10 5
-5 10 5
-5 5 0
10 5 0
10 5 5
-5 5 5
10 5 10
-8.88178419700125e-16 0 0
0 0 5
0 5 5
0 5 0
0 10 5
0 10 0
0 0 10
0 5 10

CELLS 5 45
8 14 15 16 17 3 6 11 10 
8 0 5 12 9 14 15 16 17 
8 9 12 8 1 17 16 18 19 
8 17 16 18 19 10 11 7 2 
8 20 15 16 21 4 6 11 13 

CELL_TYPES 5
12 
12 
12 
12 
12 
POINT_DATA 22
SCALARS GMDS_ID int 1
LOOKUP_TABLE default
0 1 2 3 7 8 9 10 11 12 13 14 15 16 18 19 20 21 22 23 24 25 
SCALARS geom_link_dim int 1
LOOKUP_TABLE default
1 0 0 1 0 1 1 0 0 1 1 1 1 0 2 1 1 1 1 1 1 1 
SCALARS geom_link_id int 1
LOOKUP_TABLE default
5 -1 -1 6 -1 7 10 -1 -1 19 14 20 13 -1 17 1 4 18 21 17 2 3 


CELL_DATA 5
SCALARS GMDS_ID int 1
LOOKUP_TABLE default
1 2 6 7 9 

SCALARS is_in int 1
LOOKUP_TABLE default
1 1 0 0 0 

SCALARS geom_link_dim int 1
LOOKUP_TABLE default
0 0 0 0 0 

SCALARS geom_link_id int 1
LOOKUP_TABLE default
0 0 0 0 0 

