# vtk DataFile Version 3.0
Generated by GMDS VTK Writer

ASCII
DATASET UNSTRUCTURED_GRID
POINTS 35 float
-5 0 0
-5 10 0
10 10 0
10 0 0
-5 0 10
10 10 10
10 0 10
5 10 0
5 0 0
5 0 10
5 10 10
0 10 0
8.88178419700125e-16 0 0
0 0 10
8.88178419700125e-16 10 10
0 10 5
0 0 5
-5 0 5
-5 10 5
5 10 5
5 0 5
10 10 5
10 0 5
-5 5 5
0 5 5
0 5 10
-5 5 10
-5 5 0
0 5 0
5 5 0
5 5 5
5 5 10
10 5 0
10 5 5
10 5 10

CELLS 11 99
8 17 16 13 4 23 24 25 26 
8 0 12 16 17 27 28 24 23 
8 27 28 24 23 1 11 15 18 
8 8 12 16 20 29 28 24 30 
8 29 28 24 30 7 11 15 19 
8 20 16 13 9 30 24 25 31 
8 30 24 25 31 19 15 14 10 
8 3 8 20 22 32 29 30 33 
8 32 29 30 33 2 7 19 21 
8 22 20 9 6 33 30 31 34 
8 33 30 31 34 21 19 10 5 

CELL_TYPES 11
12 
12 
12 
12 
12 
12 
12 
12 
12 
12 
12 
POINT_DATA 35
SCALARS GMDS_ID int 1
LOOKUP_TABLE default
0 1 2 3 4 6 7 8 9 10 11 12 13 14 15 16 17 18 19 20 21 22 23 24 25 26 27 28 29 30 31 32 33 34 35 
SCALARS geom_link_dim int 1
LOOKUP_TABLE default
1 0 0 1 0 0 0 1 2 1 0 1 2 1 0 1 1 1 0 1 1 0 1 1 1 1 0 1 1 1 0 1 1 1 0 
SCALARS geom_link_id int 1
LOOKUP_TABLE default
5 -1 -1 6 -1 -1 -1 16 17 8 -1 17 17 2 -1 21 1 7 -1 22 9 -1 10 13 4 3 -1 19 18 15 0 11 14 20 -1 


CELL_DATA 11
SCALARS GMDS_ID int 1
LOOKUP_TABLE default
1 3 9 10 11 12 13 14 15 16 17 

SCALARS is_in int 1
LOOKUP_TABLE default
0 1 0 1 1 1 0 1 0 0 0 

SCALARS geom_link_dim int 1
LOOKUP_TABLE default
0 0 0 0 0 0 0 0 0 0 0 

SCALARS geom_link_id int 1
LOOKUP_TABLE default
0 0 0 0 0 0 0 0 0 0 0 

