# vtk DataFile Version 3.0
Generated by GMDS VTK Writer

ASCII
DATASET UNSTRUCTURED_GRID
POINTS 35 float
-5 10 0
10 10 0
10 0 0
-5 0 10
-5 10 10
10 10 10
10 0 10
-5 0 5
10 0 5
10 10 5
-5 10 5
-5 5 0
10 5 0
10 5 5
-5 5 5
10 5 10
-5 5 10
-8.88178419700125e-16 0 0
0 0 5
0 5 5
0 5 0
0 10 5
0 10 0
0 0 10
0 5 10
-8.88178419700125e-16 10 10
5 0 0
5 0 5
5 5 5
5 5 0
5 10 5
5 10 0
5 0 10
5 5 10
5 10 10

CELLS 10 90
8 29 28 30 31 12 13 9 1 
8 26 27 28 29 2 8 13 12 
8 17 18 19 20 26 27 28 29 
8 11 14 10 0 20 19 21 22 
8 3 7 14 16 23 18 19 24 
8 16 14 10 4 24 19 21 25 
8 23 18 19 24 32 27 28 33 
8 32 27 28 33 6 8 13 15 
8 24 19 21 25 33 28 30 34 
8 33 28 30 34 15 13 9 5 

CELL_TYPES 10
12 
12 
12 
12 
12 
12 
12 
12 
12 
12 
POINT_DATA 35
SCALARS GMDS_ID int 1
LOOKUP_TABLE default
1 2 3 4 5 6 7 8 9 10 11 12 13 14 15 16 17 18 19 20 21 22 23 24 25 26 27 28 29 30 31 32 33 34 35 
SCALARS geom_link_dim_0 int 1
LOOKUP_TABLE default
0 0 0 0 0 0 0 0 0 0 0 0 0 0 0 0 0 0 0 0 0 0 0 0 0 0 0 0 0 0 0 0 0 0 0 
SCALARS geom_link_id_0 int 1
LOOKUP_TABLE default
0 0 0 0 0 0 0 0 0 0 0 0 0 0 0 0 0 0 0 0 0 0 0 0 0 0 0 0 0 0 0 0 0 0 0 


CELL_DATA 10
SCALARS GMDS_ID int 1
LOOKUP_TABLE default
0 4 5 6 8 10 12 13 14 15 

SCALARS geom_link_dim_0 int 1
LOOKUP_TABLE default
0 0 0 0 0 0 0 0 0 0 

SCALARS geom_link_id_0 int 1
LOOKUP_TABLE default
0 0 0 0 0 0 0 0 0 0 

