# vtk DataFile Version 3.0
Generated by GMDS VTK Writer

ASCII
DATASET UNSTRUCTURED_GRID
POINTS 30 float
-5 0 0
-5 10 0
10 10 0
10 0 0
5 5 5
10 5 5
5 10 0
5 0 0
5 0 10
5 10 10
10 10 5
10 0 5
5 0 5
5 10 5
-5 0 5
-5 10 5
8.88178419700125e-16 0 0
0 10 0
0 10 5
0 0 5
8.88178419700125e-16 10 10
0 0 10
5 5 10
-5 5 0
-5 5 5
0 5 5
0 5 0
10 5 0
5 5 0
0 5 10

CELLS 8 72
8 0 14 19 16 23 24 25 26 
8 23 24 25 26 1 15 18 17 
8 3 7 12 11 27 28 4 5 
8 27 28 4 5 2 6 13 10 
8 16 19 12 7 26 25 4 28 
8 26 25 4 28 17 18 13 6 
8 21 19 12 8 29 25 4 22 
8 29 25 4 22 20 18 13 9 

CELL_TYPES 8
12 
12 
12 
12 
12 
12 
12 
12 
POINT_DATA 30
SCALARS GMDS_ID int 1
LOOKUP_TABLE default
0 1 2 3 4 5 8 9 10 11 12 13 14 15 16 17 18 19 20 21 22 23 24 26 27 28 29 30 31 32 
SCALARS geom_link_dim int 1
LOOKUP_TABLE default
1 0 0 1 1 1 1 2 1 0 0 1 1 1 1 0 2 1 1 1 0 1 1 1 1 1 1 1 1 1 
SCALARS geom_link_id int 1
LOOKUP_TABLE default
5 -1 -1 6 12 20 16 17 8 -1 -1 10 9 22 7 -1 17 17 21 1 -1 2 11 19 13 4 18 14 15 3 


CELL_DATA 8
SCALARS GMDS_ID int 1
LOOKUP_TABLE default
4 8 9 10 11 12 13 14 

SCALARS is_in int 1
LOOKUP_TABLE default
1 0 1 0 1 1 1 0 

SCALARS geom_link_dim int 1
LOOKUP_TABLE default
0 0 0 0 0 0 0 0 

SCALARS geom_link_id int 1
LOOKUP_TABLE default
0 0 0 0 0 0 0 0 

