# vtk DataFile Version 3.0
Generated by GMDS VTK Writer

ASCII
DATASET UNSTRUCTURED_GRID
POINTS 36 float
-5 0 0
-5 10 0
10 10 0
10 0 0
-5 0 10
-5 10 10
10 10 10
10 0 10
-5 0 5
10 0 5
10 10 5
-5 10 5
-5 5 0
10 5 0
10 5 5
-5 5 5
10 5 10
-5 5 10
-8.88178419700125e-16 0 0
0 0 5
-8.88178419700125e-16 5 5
0 5 0
0 10 5
0 10 0
0 0 10
0 5 10
-8.88178419700125e-16 10 10
5 0 0
5 0 5
5 5 5
5 5 0
5 10 5
5 10 0
5 0 10
5 5 10
5 10 10

CELLS 12 108
8 30 29 31 32 13 14 10 2 
8 0 8 15 12 18 19 20 21 
8 21 20 22 23 30 29 31 32 
8 27 28 29 30 3 9 14 13 
8 18 19 20 21 27 28 29 30 
8 12 15 11 1 21 20 22 23 
8 4 8 15 17 24 19 20 25 
8 17 15 11 5 25 20 22 26 
8 24 19 20 25 33 28 29 34 
8 33 28 29 34 7 9 14 16 
8 25 20 22 26 34 29 31 35 
8 34 29 31 35 16 14 10 6 

CELL_TYPES 12
12 
12 
12 
12 
12 
12 
12 
12 
12 
12 
12 
12 
POINT_DATA 36
SCALARS GMDS_ID int 1
LOOKUP_TABLE default
0 1 2 3 4 5 6 7 8 9 10 11 12 13 14 15 16 17 18 19 20 21 22 23 24 25 26 27 28 29 30 31 32 33 34 35 
SCALARS geom_link_dim_0 int 1
LOOKUP_TABLE default
0 0 0 0 0 0 0 0 0 0 0 0 0 0 0 0 0 0 0 0 0 0 0 0 0 0 0 0 0 0 0 0 0 0 0 0 
SCALARS geom_link_id_0 int 1
LOOKUP_TABLE default
0 0 0 0 0 0 0 0 0 0 0 0 0 0 0 0 0 0 0 0 0 0 0 0 0 0 0 0 0 0 0 0 0 0 0 0 


CELL_DATA 12
SCALARS GMDS_ID int 1
LOOKUP_TABLE default
0 2 3 4 5 6 8 10 12 13 14 15 

SCALARS geom_link_dim_0 int 1
LOOKUP_TABLE default
0 0 0 0 0 0 0 0 0 0 0 0 

SCALARS geom_link_id_0 int 1
LOOKUP_TABLE default
0 0 0 0 0 0 0 0 0 0 0 0 

