# vtk DataFile Version 3.0
Generated by GMDS VTK Writer

ASCII
DATASET UNSTRUCTURED_GRID
POINTS 24 float
-5 0 0
10 0 0
5 5 0
5 5 5
5 10 5
-5 0 5
10 0 5
-5 5 0
10 5 0
10 5 5
-5 5 5
5 0 5
-8.88178419700125e-16 0 0
0 0 5
0 5 5
0 5 0
0 10 5
0 10 0
0 0 10
0 5 10
5 0 0
5 10 0
5 0 10
5 5 10

CELLS 5 45
8 0 5 10 7 12 13 14 15 
8 18 13 14 19 22 11 3 23 
8 20 11 3 2 1 6 9 8 
8 12 13 14 15 20 11 3 2 
8 15 14 16 17 2 3 4 21 

CELL_TYPES 5
12 
12 
12 
12 
12 
POINT_DATA 24
SCALARS GMDS_ID int 1
LOOKUP_TABLE default
0 3 4 5 6 8 9 12 13 14 15 17 18 19 20 21 22 23 24 25 26 27 28 29 
SCALARS geom_link_dim int 1
LOOKUP_TABLE default
1 1 1 1 1 1 1 1 1 1 1 1 2 1 1 1 1 1 1 1 2 1 1 1 
SCALARS geom_link_id int 1
LOOKUP_TABLE default
5 6 15 12 22 7 10 19 14 20 13 9 17 1 4 18 21 17 2 3 17 16 8 11 


CELL_DATA 5
SCALARS GMDS_ID int 1
LOOKUP_TABLE default
2 4 8 10 11 

SCALARS is_in int 1
LOOKUP_TABLE default
1 1 1 1 1 

SCALARS geom_link_dim int 1
LOOKUP_TABLE default
4 4 4 4 4 

SCALARS geom_link_id int 1
LOOKUP_TABLE default
1 1 1 1 1 

