# vtk DataFile Version 3.0
Generated by GMDS VTK Writer

ASCII
DATASET UNSTRUCTURED_GRID
POINTS 24 float
-5 0 0
10 0 0
-5 5 5
-5 5 0
-5 0 5
10 0 5
5 0 0
5 10 0
5 10 5
5 0 5
5 0 10
-4.44089209850063e-16 0 0
0 10 0
0 10 5
0 0 5
0 0 10
0 5 5
0 5 0
5 5 0
5 5 5
10 5 5
10 5 0
0 5 10
5 5 10

CELLS 5 45
8 6 9 5 1 18 19 20 21 
8 0 4 14 11 3 2 16 17 
8 11 14 9 6 17 16 19 18 
8 17 16 19 18 12 13 8 7 
8 15 14 9 10 22 16 19 23 

CELL_TYPES 5
12 
12 
12 
12 
12 
POINT_DATA 24
SCALARS GMDS_ID int 1
LOOKUP_TABLE default
0 3 6 7 8 9 12 13 14 15 17 18 19 20 21 23 24 25 26 27 28 29 31 32 
SCALARS geom_link_dim_0 int 1
LOOKUP_TABLE default
0 0 0 0 0 0 0 0 0 0 0 0 0 0 0 0 0 0 0 0 0 0 0 0 
SCALARS geom_link_id_0 int 1
LOOKUP_TABLE default
0 0 0 0 0 0 0 0 0 0 0 0 0 0 0 0 0 0 0 0 0 0 0 0 


CELL_DATA 5
SCALARS GMDS_ID int 1
LOOKUP_TABLE default
0 5 9 10 13 

SCALARS geom_link_dim_0 int 1
LOOKUP_TABLE default
0 0 0 0 0 

SCALARS geom_link_id_0 int 1
LOOKUP_TABLE default
0 0 0 0 0 

