# vtk DataFile Version 3.0
Generated by GMDS VTK Writer

ASCII
DATASET UNSTRUCTURED_GRID
POINTS 24 float
-5 0 0
10 0 0
5 5 5
5 5 0
0 10 0
-4.44089209850063e-16 0 0
-5 0 5
10 0 5
5 0 0
5 10 0
5 10 5
5 0 5
5 0 10
0 10 5
0 0 5
0 0 10
10 5 5
10 5 0
-5 5 0
-5 5 5
0 5 5
0 5 0
0 5 10
5 5 10

CELLS 5 45
8 8 11 7 1 3 2 16 17 
8 0 6 14 5 18 19 20 21 
8 5 14 11 8 21 20 2 3 
8 21 20 2 3 4 13 10 9 
8 15 14 11 12 22 20 2 23 

CELL_TYPES 5
12 
12 
12 
12 
12 
POINT_DATA 24
SCALARS GMDS_ID int 1
LOOKUP_TABLE default
0 1 2 3 4 5 6 7 8 9 10 11 13 14 15 17 18 19 20 21 22 23 24 25 
SCALARS geom_link_dim int 1
LOOKUP_TABLE default
1 1 1 1 1 2 1 1 2 1 1 1 1 1 1 1 1 1 1 1 1 1 1 1 
SCALARS geom_link_id int 1
LOOKUP_TABLE default
5 6 12 15 17 17 7 10 17 16 22 9 8 21 1 2 20 14 19 13 4 18 3 11 


CELL_DATA 5
SCALARS GMDS_ID int 1
LOOKUP_TABLE default
0 1 2 3 4 

SCALARS is_in int 1
LOOKUP_TABLE default
0 0 0 0 0 

SCALARS geom_link_dim int 1
LOOKUP_TABLE default
4 4 4 4 4 

SCALARS geom_link_id int 1
LOOKUP_TABLE default
1 1 1 1 1 

