# vtk DataFile Version 3.0
Generated by GMDS VTK Writer

ASCII
DATASET UNSTRUCTURED_GRID
POINTS 24 float
-5 0 0
10 0 0
5 5 5
10 5 5
5 10 0
5 0 0
5 0 10
10 0 5
5 0 5
5 10 5
-5 0 5
8.88178419700125e-16 0 0
0 10 0
0 10 5
0 0 5
0 0 10
5 5 10
-5 5 0
-5 5 5
0 5 5
0 5 0
10 5 0
5 5 0
0 5 10

CELLS 5 45
8 0 10 14 11 17 18 19 20 
8 1 5 8 7 21 22 2 3 
8 11 14 8 5 20 19 2 22 
8 20 19 2 22 12 13 9 4 
8 15 14 8 6 23 19 2 16 

CELL_TYPES 5
12 
12 
12 
12 
12 
POINT_DATA 24
SCALARS GMDS_ID int 1
LOOKUP_TABLE default
0 3 4 5 8 9 10 13 14 15 16 18 19 20 21 23 24 26 27 28 29 30 31 32 
SCALARS geom_link_dim int 1
LOOKUP_TABLE default
1 1 1 1 1 2 1 1 1 1 1 2 1 1 1 1 1 1 1 1 1 1 1 1 
SCALARS geom_link_id int 1
LOOKUP_TABLE default
5 6 12 20 16 17 8 10 9 22 7 17 17 21 1 2 11 19 13 4 18 14 15 3 


CELL_DATA 5
SCALARS GMDS_ID int 1
LOOKUP_TABLE default
4 9 11 12 13 

SCALARS is_in int 1
LOOKUP_TABLE default
1 1 1 1 1 

SCALARS geom_link_dim int 1
LOOKUP_TABLE default
4 4 4 4 4 

SCALARS geom_link_id int 1
LOOKUP_TABLE default
1 1 1 1 1 

