# vtk DataFile Version 3.0
Generated by GMDS VTK Writer

ASCII
DATASET UNSTRUCTURED_GRID
POINTS 35 float
-5 0 0
-5 10 0
10 0 0
-5 0 10
-5 10 10
10 10 10
10 0 10
0 10 0
8.88178419700125e-16 0 0
0 0 10
8.88178419700125e-16 10 10
10 5 0
10 5 10
0 5 10
0 5 0
-5 5 10
-5 5 0
5 5 0
5 5 10
5 10 10
5 10 0
5 0 0
5 0 10
10 10 5
10 5 5
5 5 5
5 10 5
-5 0 5
0 0 5
0 5 5
-5 5 5
0 10 5
-5 10 5
10 0 5
5 0 5

CELLS 11 99
8 23 24 25 26 5 12 18 19 
8 0 8 14 16 27 28 29 30 
8 27 28 29 30 3 9 13 15 
8 16 14 7 1 30 29 31 32 
8 30 29 31 32 15 13 10 4 
8 20 17 14 7 26 25 29 31 
8 26 25 29 31 19 18 13 10 
8 2 11 17 21 33 24 25 34 
8 33 24 25 34 6 12 18 22 
8 21 17 14 8 34 25 29 28 
8 34 25 29 28 22 18 13 9 

CELL_TYPES 11
12 
12 
12 
12 
12 
12 
12 
12 
12 
12 
12 
POINT_DATA 35
SCALARS GMDS_ID int 1
LOOKUP_TABLE default
0 1 3 4 5 6 7 8 9 10 11 12 13 14 15 16 17 18 19 20 21 22 23 24 25 26 27 28 29 30 31 32 33 34 35 
SCALARS geom_link_dim_0 int 1
LOOKUP_TABLE default
0 0 0 0 0 0 0 0 0 0 0 0 0 0 0 0 0 0 0 0 0 0 0 0 0 0 0 0 0 0 0 0 0 0 0 
SCALARS geom_link_id_0 int 1
LOOKUP_TABLE default
0 0 0 0 0 0 0 0 0 0 0 0 0 0 0 0 0 0 0 0 0 0 0 0 0 0 0 0 0 0 0 0 0 0 0 


CELL_DATA 11
SCALARS GMDS_ID int 1
LOOKUP_TABLE default
3 8 9 10 11 12 13 14 15 16 17 

SCALARS geom_link_dim_0 int 1
LOOKUP_TABLE default
0 0 0 0 0 0 0 0 0 0 0 

SCALARS geom_link_id_0 int 1
LOOKUP_TABLE default
0 0 0 0 0 0 0 0 0 0 0 

