# vtk DataFile Version 3.0
Generated by GMDS VTK Writer

ASCII
DATASET UNSTRUCTURED_GRID
POINTS 32 float
-5 0 0
-5 10 0
10 10 0
10 0 0
5 5 5
10 5 5
10 0 10
5 10 0
5 0 0
5 0 10
5 10 10
10 10 5
10 0 5
5 0 5
5 10 5
-5 0 5
-5 10 5
8.88178419700125e-16 0 0
0 10 0
0 10 5
0 0 5
8.88178419700125e-16 10 10
0 0 10
5 5 10
10 5 10
-5 5 0
-5 5 5
0 5 5
0 5 0
10 5 0
5 5 0
0 5 10

CELLS 9 81
8 0 15 20 17 25 26 27 28 
8 12 13 9 6 5 4 23 24 
8 25 26 27 28 1 16 19 18 
8 3 8 13 12 29 30 4 5 
8 29 30 4 5 2 7 14 11 
8 17 20 13 8 28 27 4 30 
8 28 27 4 30 18 19 14 7 
8 22 20 13 9 31 27 4 23 
8 31 27 4 23 21 19 14 10 

CELL_TYPES 9
12 
12 
12 
12 
12 
12 
12 
12 
12 
POINT_DATA 32
SCALARS GMDS_ID int 1
LOOKUP_TABLE default
0 1 2 3 4 5 7 8 9 10 11 12 13 14 15 16 17 18 19 20 21 22 23 24 25 26 27 28 29 30 31 32 
SCALARS geom_link_dim int 1
LOOKUP_TABLE default
1 0 0 1 1 1 0 1 2 1 0 0 1 1 1 1 0 2 1 1 1 0 1 1 0 1 1 1 1 1 1 1 
SCALARS geom_link_id int 1
LOOKUP_TABLE default
5 -1 -1 6 12 20 -1 16 17 8 -1 -1 10 9 22 7 -1 17 17 21 1 -1 2 11 -1 19 13 4 18 14 15 3 


CELL_DATA 9
SCALARS GMDS_ID int 1
LOOKUP_TABLE default
4 6 8 9 10 11 12 13 14 

SCALARS is_in int 1
LOOKUP_TABLE default
1 0 0 1 0 1 1 1 0 

SCALARS geom_link_dim int 1
LOOKUP_TABLE default
0 0 0 0 0 0 0 0 0 

SCALARS geom_link_id int 1
LOOKUP_TABLE default
0 0 0 0 0 0 0 0 0 

