# vtk DataFile Version 3.0
Generated by GMDS VTK Writer

ASCII
DATASET UNSTRUCTURED_GRID
POINTS 16 float
-5 0 0
-5 10 0
10 10 0
10 0 0
-5 0 10
-5 10 10
-5 0 5
10 0 5
10 10 5
-5 10 5
5 0 0
5 10 0
5 10 5
5 0 5
5 10 10
5 0 10

CELLS 3 27
8 0 1 9 6 10 11 12 13 
8 10 11 12 13 3 2 8 7 
8 6 9 5 4 13 12 14 15 

CELL_TYPES 3
12 
12 
12 
POINT_DATA 16
SCALARS GMDS_ID int 1
LOOKUP_TABLE default
0 1 2 3 4 5 8 9 10 11 12 13 14 15 16 17 
SCALARS geom_link_dim int 1
LOOKUP_TABLE default
1 0 0 1 0 0 1 1 0 0 2 1 1 1 0 1 
SCALARS geom_link_id int 1
LOOKUP_TABLE default
5 -1 -1 6 -1 -1 7 10 -1 -1 17 16 22 9 -1 8 


CELL_DATA 3
SCALARS GMDS_ID int 1
LOOKUP_TABLE default
0 1 2 

SCALARS is_in int 1
LOOKUP_TABLE default
0 0 0 

SCALARS geom_link_dim int 1
LOOKUP_TABLE default
0 0 0 

SCALARS geom_link_id int 1
LOOKUP_TABLE default
0 0 0 

