# vtk DataFile Version 3.0
Generated by GMDS VTK Writer

ASCII
DATASET UNSTRUCTURED_GRID
POINTS 26 float
-5 0 0
10 0 0
-5 0 5
10 0 5
-8.88178419700125e-16 0 0
0 10 0
0 10 5
0 0 5
-8.88178419700125e-16 10 10
0 0 10
5 0 0
5 10 0
5 10 5
5 0 5
5 10 10
5 0 10
0 5 0
0 5 5
5 5 5
5 5 0
-5 5 0
-5 5 5
0 5 10
10 5 5
10 5 0
5 5 10

CELLS 6 54
8 16 17 18 19 5 6 12 11 
8 4 7 13 10 16 17 18 19 
8 0 2 7 4 20 21 17 16 
8 10 13 3 1 19 18 23 24 
8 7 9 15 13 17 22 25 18 
8 17 22 25 18 6 8 14 12 

CELL_TYPES 6
12 
12 
12 
12 
12 
12 
POINT_DATA 26
SCALARS GMDS_ID int 1
LOOKUP_TABLE default
0 3 8 9 12 13 14 15 16 17 18 19 20 21 22 23 24 25 26 27 28 29 31 32 33 34 
SCALARS geom_link_dim_0 int 1
LOOKUP_TABLE default
0 0 0 0 0 0 0 0 0 0 0 0 0 0 0 0 0 0 0 0 0 0 0 0 0 0 
SCALARS geom_link_id_0 int 1
LOOKUP_TABLE default
0 0 0 0 0 0 0 0 0 0 0 0 0 0 0 0 0 0 0 0 0 0 0 0 0 0 


CELL_DATA 6
SCALARS GMDS_ID int 1
LOOKUP_TABLE default
3 5 8 12 14 15 

SCALARS geom_link_dim_0 int 1
LOOKUP_TABLE default
0 0 0 0 0 0 

SCALARS geom_link_id_0 int 1
LOOKUP_TABLE default
0 0 0 0 0 0 

