# vtk DataFile Version 3.0
Generated by GMDS VTK Writer

ASCII
DATASET UNSTRUCTURED_GRID
POINTS 34 float
-5 0 0
-5 10 0
10 10 0
10 0 0
-5 0 10
10 0 10
5 10 0
5 0 0
5 0 10
5 10 10
0 10 0
8.88178419700125e-16 0 0
0 0 10
8.88178419700125e-16 10 10
0 10 5
0 0 5
-5 0 5
-5 10 5
5 10 5
5 0 5
10 10 5
10 0 5
-5 5 5
0 5 5
0 5 10
-5 5 10
-5 5 0
0 5 0
5 5 0
5 5 5
5 5 10
10 5 0
10 5 5
10 5 10

CELLS 10 90
8 16 15 12 4 22 23 24 25 
8 0 11 15 16 26 27 23 22 
8 26 27 23 22 1 10 14 17 
8 7 11 15 19 28 27 23 29 
8 28 27 23 29 6 10 14 18 
8 19 15 12 8 29 23 24 30 
8 29 23 24 30 18 14 13 9 
8 3 7 19 21 31 28 29 32 
8 31 28 29 32 2 6 18 20 
8 21 19 8 5 32 29 30 33 

CELL_TYPES 10
12 
12 
12 
12 
12 
12 
12 
12 
12 
12 
POINT_DATA 34
SCALARS GMDS_ID int 1
LOOKUP_TABLE default
0 1 2 3 4 7 8 9 10 11 12 13 14 15 16 17 18 19 20 21 22 23 24 25 26 27 28 29 30 31 32 33 34 35 
SCALARS geom_link_dim int 1
LOOKUP_TABLE default
1 0 0 1 0 0 1 2 1 0 1 2 1 0 1 1 1 0 1 1 0 1 1 1 1 0 1 1 1 1 1 1 1 0 
SCALARS geom_link_id int 1
LOOKUP_TABLE default
5 -1 -1 6 -1 -1 16 17 8 -1 17 17 2 -1 21 1 7 -1 22 9 -1 10 13 4 3 -1 19 18 15 12 11 14 20 -1 


CELL_DATA 10
SCALARS GMDS_ID int 1
LOOKUP_TABLE default
1 3 9 10 11 12 13 14 15 16 

SCALARS is_in int 1
LOOKUP_TABLE default
0 1 0 1 1 1 0 1 0 0 

SCALARS geom_link_dim int 1
LOOKUP_TABLE default
0 0 0 0 0 0 0 0 0 0 

SCALARS geom_link_id int 1
LOOKUP_TABLE default
0 0 0 0 0 0 0 0 0 0 

