# vtk DataFile Version 3.0
Generated by GMDS VTK Writer

ASCII
DATASET UNSTRUCTURED_GRID
POINTS 36 float
-5 0 0
-5 10 0
10 10 0
10 0 0
-5 0 10
-5 10 10
10 10 10
10 0 10
5 10 0
5 0 0
5 0 10
5 10 10
0 10 0
8.88178419700125e-16 0 0
0 0 10
8.88178419700125e-16 10 10
0 10 5
0 0 5
-5 0 5
-5 10 5
5 10 5
5 0 5
10 10 5
10 0 5
-5 5 5
0 5 5
0 5 10
-5 5 10
-5 5 0
0 5 0
5 5 0
5 5 5
5 5 10
10 5 0
10 5 5
10 5 10

CELLS 12 108
8 24 25 26 27 19 16 15 5 
8 18 17 14 4 24 25 26 27 
8 0 13 17 18 28 29 25 24 
8 28 29 25 24 1 12 16 19 
8 9 13 17 21 30 29 25 31 
8 30 29 25 31 8 12 16 20 
8 21 17 14 10 31 25 26 32 
8 31 25 26 32 20 16 15 11 
8 3 9 21 23 33 30 31 34 
8 33 30 31 34 2 8 20 22 
8 23 21 10 7 34 31 32 35 
8 34 31 32 35 22 20 11 6 

CELL_TYPES 12
12 
12 
12 
12 
12 
12 
12 
12 
12 
12 
12 
12 
POINT_DATA 36
SCALARS GMDS_ID int 1
LOOKUP_TABLE default
0 1 2 3 4 5 6 7 8 9 10 11 12 13 14 15 16 17 18 19 20 21 22 23 24 25 26 27 28 29 30 31 32 33 34 35 
SCALARS geom_link_dim int 1
LOOKUP_TABLE default
1 0 0 1 0 0 0 0 1 2 1 0 1 2 1 0 1 1 1 0 1 1 0 1 1 0 1 0 1 1 1 0 1 1 1 0 
SCALARS geom_link_id int 1
LOOKUP_TABLE default
5 -1 -1 6 -1 -1 -1 -1 16 17 8 -1 17 17 2 -1 21 1 7 -1 22 9 -1 10 13 -1 3 -1 19 18 15 -1 11 14 20 -1 


CELL_DATA 12
SCALARS GMDS_ID int 1
LOOKUP_TABLE default
0 1 3 9 10 11 12 13 14 15 16 17 

SCALARS is_in int 1
LOOKUP_TABLE default
0 0 1 0 1 1 1 0 1 0 0 0 

SCALARS geom_link_dim int 1
LOOKUP_TABLE default
0 0 0 0 0 0 0 0 0 0 0 0 

SCALARS geom_link_id int 1
LOOKUP_TABLE default
-1 -1 -1 -1 -1 -1 -1 -1 -1 -1 -1 -1 

