# vtk DataFile Version 3.0
Generated by GMDS VTK Writer

ASCII
DATASET UNSTRUCTURED_GRID
POINTS 30 float
-5 0 0
-5 10 0
10 10 0
10 0 0
5 5 5
5 5 0
0 10 0
-4.44089209850063e-16 0 0
-5 0 5
10 0 5
10 10 5
-5 10 5
5 0 0
5 10 0
5 10 5
5 0 5
5 10 10
5 0 10
0 10 5
0 0 5
-4.44089209850063e-16 10 10
0 0 10
10 5 5
10 5 0
-5 5 0
-5 5 5
0 5 5
0 5 0
0 5 10
5 5 10

CELLS 8 72
8 12 15 9 3 5 4 22 23 
8 5 4 22 23 13 14 10 2 
8 0 8 19 7 24 25 26 27 
8 24 25 26 27 1 11 18 6 
8 7 19 15 12 27 26 4 5 
8 27 26 4 5 6 18 14 13 
8 21 19 15 17 28 26 4 29 
8 28 26 4 29 20 18 14 16 

CELL_TYPES 8
12 
12 
12 
12 
12 
12 
12 
12 
POINT_DATA 30
SCALARS GMDS_ID int 1
LOOKUP_TABLE default
0 1 2 3 4 5 6 7 8 9 10 11 12 13 14 15 16 17 18 19 20 21 22 23 24 25 26 27 28 29 
SCALARS geom_link_dim int 1
LOOKUP_TABLE default
1 0 0 1 1 1 1 2 1 1 0 0 2 1 1 1 0 1 1 1 0 1 1 1 1 1 1 1 1 1 
SCALARS geom_link_id int 1
LOOKUP_TABLE default
5 -1 -1 6 12 15 17 17 7 10 -1 -1 17 16 22 9 -1 8 21 1 -1 2 20 14 19 13 4 18 3 11 


CELL_DATA 8
SCALARS GMDS_ID int 1
LOOKUP_TABLE default
3 5 6 7 8 9 10 11 

SCALARS is_in int 1
LOOKUP_TABLE default
1 0 1 0 1 1 1 0 

SCALARS geom_link_dim int 1
LOOKUP_TABLE default
0 0 0 0 0 0 0 0 

SCALARS geom_link_id int 1
LOOKUP_TABLE default
-1 -1 -1 -1 -1 -1 -1 -1 

