# vtk DataFile Version 3.0
Generated by GMDS VTK Writer

ASCII
DATASET UNSTRUCTURED_GRID
POINTS 16 float
-5 0 0
-5 10 0
10 10 0
10 0 0
-5 0 10
-5 10 10
10 10 10
10 0 10
5 10 0
5 0 0
5 0 10
5 10 10
0 10 0
8.88178419700125e-16 0 0
0 0 10
8.88178419700125e-16 10 10

CELLS 3 27
8 8 9 10 11 12 13 14 15 
8 2 3 7 6 8 9 10 11 
8 12 13 14 15 1 0 4 5 

CELL_TYPES 3
12 
12 
12 
POINT_DATA 16
SCALARS GMDS_ID int 1
LOOKUP_TABLE default
0 1 2 3 4 5 6 7 8 9 10 11 12 13 14 15 
SCALARS geom_link_dim int 1
LOOKUP_TABLE default
1 0 0 1 0 0 0 0 1 2 1 0 1 2 1 0 
SCALARS geom_link_id int 1
LOOKUP_TABLE default
5 -1 -1 6 -1 -1 -1 -1 16 17 8 -1 17 17 2 -1 


CELL_DATA 3
SCALARS GMDS_ID int 1
LOOKUP_TABLE default
0 1 3 

SCALARS is_in int 1
LOOKUP_TABLE default
0 0 0 

SCALARS geom_link_dim int 1
LOOKUP_TABLE default
0 0 0 

SCALARS geom_link_id int 1
LOOKUP_TABLE default
-1 0 -1 

