# vtk DataFile Version 3.0
Generated by GMDS VTK Writer

ASCII
DATASET UNSTRUCTURED_GRID
POINTS 28 float
-5 0 0
10 0 0
10 0 10
-5 0 5
10 0 5
-8.88178419700125e-16 0 0
0 10 0
0 10 5
0 0 5
-8.88178419700125e-16 10 10
0 0 10
5 0 0
5 10 0
5 10 5
5 0 5
5 10 10
5 0 10
0 5 0
0 5 5
5 5 5
5 5 0
-5 5 0
-5 5 5
0 5 10
10 5 5
10 5 0
5 5 10
10 5 10

CELLS 7 63
8 17 18 19 20 6 7 13 12 
8 5 8 14 11 17 18 19 20 
8 0 3 8 5 21 22 18 17 
8 11 14 4 1 20 19 24 25 
8 8 10 16 14 18 23 26 19 
8 18 23 26 19 7 9 15 13 
8 14 16 2 4 19 26 27 24 

CELL_TYPES 7
12 
12 
12 
12 
12 
12 
12 
POINT_DATA 28
SCALARS GMDS_ID int 1
LOOKUP_TABLE default
0 3 7 8 9 12 13 14 15 16 17 18 19 20 21 22 23 24 25 26 27 28 29 31 32 33 34 35 
SCALARS geom_link_dim_0 int 1
LOOKUP_TABLE default
0 0 0 0 0 0 0 0 0 0 0 0 0 0 0 0 0 0 0 0 0 0 0 0 0 0 0 0 
SCALARS geom_link_id_0 int 1
LOOKUP_TABLE default
0 0 0 0 0 0 0 0 0 0 0 0 0 0 0 0 0 0 0 0 0 0 0 0 0 0 0 0 


CELL_DATA 7
SCALARS GMDS_ID int 1
LOOKUP_TABLE default
3 5 8 12 14 15 16 

SCALARS geom_link_dim_0 int 1
LOOKUP_TABLE default
0 0 0 0 0 0 0 

SCALARS geom_link_id_0 int 1
LOOKUP_TABLE default
0 0 0 0 0 0 0 

