# vtk DataFile Version 3.0
Generated by GMDS VTK Writer

ASCII
DATASET UNSTRUCTURED_GRID
POINTS 32 float
-5 0 0
-5 10 0
10 10 0
10 0 0
-5 0 10
-5 10 10
-5 5 5
-5 5 0
-5 0 5
10 0 5
10 10 5
-5 10 5
5 0 0
5 10 0
5 10 5
5 0 5
5 0 10
-4.44089209850063e-16 0 0
0 10 0
0 10 5
0 0 5
-4.44089209850063e-16 10 10
0 0 10
0 5 5
0 5 0
5 5 0
5 5 5
10 5 5
10 5 0
-5 5 10
0 5 10
5 5 10

CELLS 9 81
8 12 15 9 3 25 26 27 28 
8 7 6 23 24 1 11 19 18 
8 0 8 20 17 7 6 23 24 
8 25 26 27 28 13 14 10 2 
8 17 20 15 12 24 23 26 25 
8 24 23 26 25 18 19 14 13 
8 4 8 20 22 29 6 23 30 
8 29 6 23 30 5 11 19 21 
8 22 20 15 16 30 23 26 31 

CELL_TYPES 9
12 
12 
12 
12 
12 
12 
12 
12 
12 
POINT_DATA 32
SCALARS GMDS_ID int 1
LOOKUP_TABLE default
0 1 2 3 4 5 6 7 8 9 10 11 12 13 14 15 17 18 19 20 21 22 23 24 25 26 27 28 29 30 31 32 
SCALARS geom_link_dim_0 int 1
LOOKUP_TABLE default
0 0 0 0 0 0 0 0 0 0 0 0 0 0 0 0 0 0 0 0 0 0 0 0 0 0 0 0 0 0 0 0 
SCALARS geom_link_id_0 int 1
LOOKUP_TABLE default
0 0 0 0 0 0 0 0 0 0 0 0 0 0 0 0 0 0 0 0 0 0 0 0 0 0 0 0 0 0 0 0 


CELL_DATA 9
SCALARS GMDS_ID int 1
LOOKUP_TABLE default
0 4 5 8 9 10 11 12 13 

SCALARS geom_link_dim_0 int 1
LOOKUP_TABLE default
0 0 0 0 0 0 0 0 0 

SCALARS geom_link_id_0 int 1
LOOKUP_TABLE default
0 0 0 0 0 0 0 0 0 

