# vtk DataFile Version 3.0
Generated by GMDS VTK Writer

ASCII
DATASET UNSTRUCTURED_GRID
POINTS 35 float
-5 0 0
10 10 0
10 0 0
-5 0 10
-5 10 10
10 10 10
10 0 10
-5 0 5
10 0 5
10 10 5
-5 10 5
-8.88178419700125e-16 0 0
0 10 0
0 10 5
0 0 5
-8.88178419700125e-16 10 10
0 0 10
5 0 0
5 10 0
5 10 5
5 0 5
5 10 10
5 0 10
0 5 0
0 5 5
5 5 5
5 5 0
-5 5 0
-5 5 5
-5 5 10
0 5 10
10 5 5
10 5 0
5 5 10
10 5 10

CELLS 11 99
8 23 24 25 26 12 13 19 18 
8 11 14 20 17 23 24 25 26 
8 0 7 14 11 27 28 24 23 
8 3 7 14 16 29 28 24 30 
8 29 28 24 30 4 10 13 15 
8 17 20 8 2 26 25 31 32 
8 26 25 31 32 18 19 9 1 
8 14 16 22 20 24 30 33 25 
8 24 30 33 25 13 15 21 19 
8 20 22 6 8 25 33 34 31 
8 25 33 34 31 19 21 5 9 

CELL_TYPES 11
12 
12 
12 
12 
12 
12 
12 
12 
12 
12 
12 
POINT_DATA 35
SCALARS GMDS_ID int 1
LOOKUP_TABLE default
0 2 3 4 5 6 7 8 9 10 11 12 13 14 15 16 17 18 19 20 21 22 23 24 25 26 27 28 29 30 31 32 33 34 35 
SCALARS geom_link_dim_0 int 1
LOOKUP_TABLE default
0 0 0 0 0 0 0 0 0 0 0 0 0 0 0 0 0 0 0 0 0 0 0 0 0 0 0 0 0 0 0 0 0 0 0 
SCALARS geom_link_id_0 int 1
LOOKUP_TABLE default
0 0 0 0 0 0 0 0 0 0 0 0 0 0 0 0 0 0 0 0 0 0 0 0 0 0 0 0 0 0 0 0 0 0 0 


CELL_DATA 11
SCALARS GMDS_ID int 1
LOOKUP_TABLE default
3 5 8 10 11 12 13 14 15 16 17 

SCALARS geom_link_dim_0 int 1
LOOKUP_TABLE default
0 0 0 0 0 0 0 0 0 0 0 

SCALARS geom_link_id_0 int 1
LOOKUP_TABLE default
0 0 0 0 0 0 0 0 0 0 0 

