# vtk DataFile Version 3.0
Generated by GMDS VTK Writer

ASCII
DATASET UNSTRUCTURED_GRID
POINTS 28 float
-5 0 0
-5 10 0
10 10 0
10 0 0
5 5 0
5 5 5
5 10 5
-5 0 5
10 0 5
10 10 5
-5 10 5
-5 5 0
10 5 0
10 5 5
-5 5 5
5 0 5
-8.88178419700125e-16 0 0
0 0 5
0 5 5
0 5 0
0 10 5
0 10 0
0 0 10
0 5 10
5 0 0
5 10 0
5 0 10
5 5 10

CELLS 7 63
8 0 7 14 11 16 17 18 19 
8 22 17 18 23 26 15 5 27 
8 4 5 6 25 12 13 9 2 
8 11 14 10 1 19 18 20 21 
8 24 15 5 4 3 8 13 12 
8 16 17 18 19 24 15 5 4 
8 19 18 20 21 4 5 6 25 

CELL_TYPES 7
12 
12 
12 
12 
12 
12 
12 
POINT_DATA 28
SCALARS GMDS_ID int 1
LOOKUP_TABLE default
0 1 2 3 4 5 6 8 9 10 11 12 13 14 15 17 18 19 20 21 22 23 24 25 26 27 28 29 
SCALARS geom_link_dim int 1
LOOKUP_TABLE default
1 0 0 1 1 1 1 1 1 0 0 1 1 1 1 1 2 1 1 1 1 1 1 1 2 1 1 1 
SCALARS geom_link_id int 1
LOOKUP_TABLE default
5 -1 -1 6 15 12 22 7 10 -1 -1 19 14 20 13 9 17 1 4 18 21 17 2 3 17 16 8 11 


CELL_DATA 7
SCALARS GMDS_ID int 1
LOOKUP_TABLE default
2 4 5 6 8 10 11 

SCALARS is_in int 1
LOOKUP_TABLE default
1 1 0 0 1 1 1 

SCALARS geom_link_dim int 1
LOOKUP_TABLE default
0 0 0 0 0 0 0 

SCALARS geom_link_id int 1
LOOKUP_TABLE default
0 0 0 0 0 0 0 

