# vtk DataFile Version 3.0
Generated by GMDS VTK Writer

ASCII
DATASET UNSTRUCTURED_GRID
POINTS 32 float
-5 0 0
-5 10 0
10 10 0
10 0 0
-5 0 10
10 0 10
5 10 0
5 0 0
5 0 10
0 10 0
8.88178419700125e-16 0 0
0 0 10
0 10 5
0 0 5
-5 0 5
-5 10 5
5 10 5
5 0 5
10 10 5
10 0 5
-5 5 5
0 5 5
0 5 10
-5 5 10
-5 5 0
0 5 0
5 5 0
5 5 5
5 5 10
10 5 0
10 5 5
10 5 10

CELLS 9 81
8 14 13 11 4 20 21 22 23 
8 0 10 13 14 24 25 21 20 
8 24 25 21 20 1 9 12 15 
8 7 10 13 17 26 25 21 27 
8 26 25 21 27 6 9 12 16 
8 17 13 11 8 27 21 22 28 
8 3 7 17 19 29 26 27 30 
8 29 26 27 30 2 6 16 18 
8 19 17 8 5 30 27 28 31 

CELL_TYPES 9
12 
12 
12 
12 
12 
12 
12 
12 
12 
POINT_DATA 32
SCALARS GMDS_ID int 1
LOOKUP_TABLE default
0 1 2 3 4 7 8 9 10 12 13 14 16 17 18 19 20 21 22 23 24 25 26 27 28 29 30 31 32 33 34 35 
SCALARS geom_link_dim int 1
LOOKUP_TABLE default
1 0 0 1 0 0 1 2 1 1 2 1 1 1 1 0 1 1 0 1 1 1 1 0 1 1 1 1 1 1 1 0 
SCALARS geom_link_id int 1
LOOKUP_TABLE default
5 -1 -1 6 -1 -1 16 17 8 17 17 2 21 1 7 -1 22 9 -1 10 13 4 3 -1 19 18 15 12 11 14 20 -1 


CELL_DATA 9
SCALARS GMDS_ID int 1
LOOKUP_TABLE default
1 3 9 10 11 12 14 15 16 

SCALARS is_in int 1
LOOKUP_TABLE default
0 1 0 1 1 1 1 0 0 

SCALARS geom_link_dim int 1
LOOKUP_TABLE default
0 0 0 0 0 0 0 0 0 

SCALARS geom_link_id int 1
LOOKUP_TABLE default
0 0 0 0 0 0 0 0 0 

