# vtk DataFile Version 3.0
Generated by GMDS VTK Writer

ASCII
DATASET UNSTRUCTURED_GRID
POINTS 26 float
-5 0 0
-5 10 0
10 0 0
5 10 0
5 0 0
5 0 10
0 10 0
8.88178419700125e-16 0 0
0 0 10
0 10 5
0 0 5
-5 0 5
-5 10 5
5 10 5
5 0 5
10 0 5
-5 5 5
0 5 5
0 5 10
-5 5 0
0 5 0
5 5 0
5 5 5
5 5 10
10 5 0
10 5 5

CELLS 6 54
8 0 7 10 11 19 20 17 16 
8 19 20 17 16 1 6 9 12 
8 4 7 10 14 21 20 17 22 
8 21 20 17 22 3 6 9 13 
8 14 10 8 5 22 17 18 23 
8 2 4 14 15 24 21 22 25 

CELL_TYPES 6
12 
12 
12 
12 
12 
12 
POINT_DATA 26
SCALARS GMDS_ID int 1
LOOKUP_TABLE default
0 1 3 8 9 10 12 13 14 16 17 18 19 20 21 23 24 25 26 28 29 30 31 32 33 34 
SCALARS geom_link_dim int 1
LOOKUP_TABLE default
1 0 1 1 2 1 1 2 1 1 1 1 0 1 1 1 1 1 1 1 1 1 1 1 1 1 
SCALARS geom_link_id int 1
LOOKUP_TABLE default
5 -1 6 16 17 8 17 17 2 21 1 7 -1 22 9 10 13 4 3 19 18 15 12 11 14 20 


CELL_DATA 6
SCALARS GMDS_ID int 1
LOOKUP_TABLE default
3 9 10 11 12 14 

SCALARS is_in int 1
LOOKUP_TABLE default
1 0 1 1 1 1 

SCALARS geom_link_dim int 1
LOOKUP_TABLE default
0 0 0 0 0 0 

SCALARS geom_link_id int 1
LOOKUP_TABLE default
0 0 0 0 0 0 

