# vtk DataFile Version 3.0
Generated by GMDS VTK Writer

ASCII
DATASET UNSTRUCTURED_GRID
POINTS 34 float
-5 0 0
-5 10 0
10 0 0
-5 0 10
-5 10 10
10 10 10
0 10 0
8.88178419700125e-16 0 0
0 0 10
8.88178419700125e-16 10 10
10 5 0
10 5 10
0 5 10
0 5 0
-5 5 10
-5 5 0
5 5 0
5 5 10
5 10 10
5 10 0
5 0 0
5 0 10
10 10 5
10 5 5
5 5 5
5 10 5
-5 0 5
0 0 5
0 5 5
-5 5 5
0 10 5
-5 10 5
10 0 5
5 0 5

CELLS 10 90
8 22 23 24 25 5 11 17 18 
8 0 7 13 15 26 27 28 29 
8 26 27 28 29 3 8 12 14 
8 15 13 6 1 29 28 30 31 
8 29 28 30 31 14 12 9 4 
8 19 16 13 6 25 24 28 30 
8 25 24 28 30 18 17 12 9 
8 2 10 16 20 32 23 24 33 
8 20 16 13 7 33 24 28 27 
8 33 24 28 27 21 17 12 8 

CELL_TYPES 10
12 
12 
12 
12 
12 
12 
12 
12 
12 
12 
POINT_DATA 34
SCALARS GMDS_ID int 1
LOOKUP_TABLE default
0 1 3 4 5 6 8 9 10 11 12 13 14 15 16 17 18 19 20 21 22 23 24 25 26 27 28 29 30 31 32 33 34 35 
SCALARS geom_link_dim_0 int 1
LOOKUP_TABLE default
0 0 0 0 0 0 0 0 0 0 0 0 0 0 0 0 0 0 0 0 0 0 0 0 0 0 0 0 0 0 0 0 0 0 
SCALARS geom_link_id_0 int 1
LOOKUP_TABLE default
0 0 0 0 0 0 0 0 0 0 0 0 0 0 0 0 0 0 0 0 0 0 0 0 0 0 0 0 0 0 0 0 0 0 


CELL_DATA 10
SCALARS GMDS_ID int 1
LOOKUP_TABLE default
3 8 9 10 11 12 13 14 16 17 

SCALARS geom_link_dim_0 int 1
LOOKUP_TABLE default
0 0 0 0 0 0 0 0 0 0 

SCALARS geom_link_id_0 int 1
LOOKUP_TABLE default
0 0 0 0 0 0 0 0 0 0 

