# vtk DataFile Version 3.0
Generated by GMDS VTK Writer

ASCII
DATASET UNSTRUCTURED_GRID
POINTS 28 float
-5 0 0
10 5 5
10 0 0
-5 10 10
10 0 5
0 5 0
-5 5 0
-5 5 10
8.88178419700125e-16 0 0
10 5 0
5 0 0
5 0 10
5 5 10
5 5 0
5 10 0
5 5 5
5 0 5
-5 5 5
-5 0 5
5 10 5
-5 10 5
0 5 5
0 0 5
0 5 10
0 0 10
0 10 0
0 10 5
8.88178419700125e-16 10 10

CELLS 6 54
8 22 21 23 24 16 15 12 11 
8 0 6 17 18 8 5 21 22 
8 2 9 13 10 4 1 15 16 
8 8 5 21 22 10 13 15 16 
8 25 5 21 26 14 13 15 19 
8 20 17 7 3 26 21 23 27 

CELL_TYPES 6
12 
12 
12 
12 
12 
12 
POINT_DATA 28
SCALARS GMDS_ID int 1
LOOKUP_TABLE default
0 2 3 5 6 7 8 9 10 11 12 13 14 15 17 18 19 20 21 22 23 24 25 26 27 28 29 30 
SCALARS geom_link_dim int 1
LOOKUP_TABLE default
1 1 1 0 1 1 1 0 2 1 2 1 1 1 1 1 1 1 1 1 0 1 1 1 1 1 1 0 
SCALARS geom_link_id int 1
LOOKUP_TABLE default
5 20 6 -1 10 18 19 -1 17 14 17 8 11 15 16 12 9 13 7 22 -1 4 1 3 2 17 21 -1 


CELL_DATA 6
SCALARS GMDS_ID int 1
LOOKUP_TABLE default
0 2 4 5 10 11 

SCALARS is_in int 1
LOOKUP_TABLE default
1 1 1 1 1 0 

SCALARS geom_link_dim int 1
LOOKUP_TABLE default
0 0 0 0 0 0 

SCALARS geom_link_id int 1
LOOKUP_TABLE default
0 0 0 0 0 0 

