# vtk DataFile Version 3.0
Generated by GMDS VTK Writer

ASCII
DATASET UNSTRUCTURED_GRID
POINTS 26 float
-5 0 0
-5 10 0
10 10 0
10 0 0
-5 0 10
-5 10 10
10 0 10
-5 0 5
10 0 5
10 10 5
-5 10 5
5 0 0
5 10 0
5 10 5
5 0 5
5 10 10
5 0 10
-5 5 0
-5 5 5
5 5 5
5 5 0
10 5 5
10 5 0
-5 5 10
5 5 10
10 5 10

CELLS 7 63
8 17 18 19 20 1 10 13 12 
8 0 7 14 11 17 18 19 20 
8 11 14 8 3 20 19 21 22 
8 20 19 21 22 12 13 9 2 
8 4 7 14 16 23 18 19 24 
8 23 18 19 24 5 10 13 15 
8 16 14 8 6 24 19 21 25 

CELL_TYPES 7
12 
12 
12 
12 
12 
12 
12 
POINT_DATA 26
SCALARS GMDS_ID int 1
LOOKUP_TABLE default
0 1 2 3 4 5 7 8 9 10 11 12 13 14 15 16 17 18 19 20 21 22 23 24 25 26 
SCALARS geom_link_dim int 1
LOOKUP_TABLE default
1 0 0 1 0 0 0 1 1 0 0 2 1 1 1 0 1 1 1 1 1 1 1 0 1 0 
SCALARS geom_link_id int 1
LOOKUP_TABLE default
5 -1 -1 6 -1 -1 -1 7 10 -1 -1 17 16 22 9 -1 8 19 13 12 15 20 14 -1 11 -1 


CELL_DATA 7
SCALARS GMDS_ID int 1
LOOKUP_TABLE default
1 2 6 7 8 9 10 

SCALARS is_in int 1
LOOKUP_TABLE default
0 1 1 0 0 0 0 

SCALARS geom_link_dim int 1
LOOKUP_TABLE default
0 0 0 0 0 0 0 

SCALARS geom_link_id int 1
LOOKUP_TABLE default
0 0 0 0 0 0 0 

