# vtk DataFile Version 3.0
Generated by GMDS VTK Writer

ASCII
DATASET UNSTRUCTURED_GRID
POINTS 35 float
-5 0 0
-5 10 0
10 0 0
-5 0 10
-5 10 10
10 10 10
10 0 10
0 10 0
8.88178419700125e-16 0 0
0 0 10
8.88178419700125e-16 10 10
10 5 0
10 5 10
0 5 10
0 5 0
-5 5 10
-5 5 0
5 5 0
5 5 10
5 10 10
5 10 0
5 0 0
5 0 10
10 10 5
10 5 5
5 5 5
5 10 5
-5 0 5
0 0 5
0 5 5
-5 5 5
0 10 5
-5 10 5
10 0 5
5 0 5

CELLS 72 216
2 19 10
2 6 12
2 11 17
2 12 5
2 18 13
2 2 11
2 17 14
2 23 5
2 7 1
2 17 25
2 8 0
2 25 18
2 9 3
2 10 4
2 5 19
2 12 18
2 9 13
2 13 10
2 8 14
2 14 7
2 24 12
2 11 24
2 3 15
2 15 4
2 0 16
2 16 1
2 15 13
2 16 14
2 20 7
2 19 18
2 20 17
2 2 21
2 21 8
2 6 22
2 22 9
2 22 18
2 21 17
2 20 26
2 26 19
2 23 24
2 24 25
2 25 26
2 23 26
2 0 27
2 27 3
2 8 28
2 28 9
2 14 29
2 29 13
2 16 30
2 30 15
2 27 28
2 28 29
2 29 30
2 27 30
2 7 31
2 31 10
2 1 32
2 32 4
2 31 29
2 32 31
2 32 30
2 29 25
2 31 26
2 2 33
2 33 6
2 21 34
2 34 22
2 33 24
2 25 34
2 33 34
2 28 34

CELL_TYPES 72
3 
3 
3 
3 
3 
3 
3 
3 
3 
3 
3 
3 
3 
3 
3 
3 
3 
3 
3 
3 
3 
3 
3 
3 
3 
3 
3 
3 
3 
3 
3 
3 
3 
3 
3 
3 
3 
3 
3 
3 
3 
3 
3 
3 
3 
3 
3 
3 
3 
3 
3 
3 
3 
3 
3 
3 
3 
3 
3 
3 
3 
3 
3 
3 
3 
3 
3 
3 
3 
3 
3 
3 
POINT_DATA 35
SCALARS GMDS_ID int 1
LOOKUP_TABLE default
0 1 3 4 5 6 7 8 9 10 11 12 13 14 15 16 17 18 19 20 21 22 23 24 25 26 27 28 29 30 31 32 33 34 35 
SCALARS geom_link_dim_0 int 1
LOOKUP_TABLE default
0 0 0 0 0 0 0 0 0 0 0 0 0 0 0 0 0 0 0 0 0 0 0 0 0 0 0 0 0 0 0 0 0 0 0 
SCALARS geom_link_id_0 int 1
LOOKUP_TABLE default
0 0 0 0 0 0 0 0 0 0 0 0 0 0 0 0 0 0 0 0 0 0 0 0 0 0 0 0 0 0 0 0 0 0 0 


CELL_DATA 72
SCALARS GMDS_ID int 1
LOOKUP_TABLE default
0 1 2 3 4 5 6 12 13 14 15 16 17 19 20 22 24 25 26 27 29 31 32 33 34 35 36 38 40 42 44 45 46 47 48 50 51 52 53 54 55 56 57 58 59 60 61 62 63 64 65 66 67 68 69 70 71 72 73 74 75 76 77 78 79 80 81 82 83 84 85 86 

SCALARS geom_link_dim_0 int 1
LOOKUP_TABLE default
0 0 0 0 0 0 0 0 0 0 0 0 0 0 0 0 0 0 0 0 0 0 0 0 0 0 0 0 0 0 0 0 0 0 0 0 0 0 0 0 0 0 0 0 0 0 0 0 0 0 0 0 0 0 0 0 0 0 0 0 0 0 0 0 0 0 0 0 0 0 0 0 

SCALARS geom_link_id_0 int 1
LOOKUP_TABLE default
0 0 0 0 0 0 0 0 0 0 0 0 0 0 0 0 0 0 0 0 0 0 0 0 0 0 0 0 0 0 0 0 0 0 0 0 0 0 0 0 0 0 0 0 0 0 0 0 0 0 0 0 0 0 0 0 0 0 0 0 0 0 0 0 0 0 0 0 0 0 0 0 

