# vtk DataFile Version 3.0
Generated by GMDS VTK Writer

ASCII
DATASET UNSTRUCTURED_GRID
POINTS 24 float
-5 0 0
10 0 0
5 5 0
5 5 5
5 10 5
-5 0 5
10 0 5
-5 5 0
10 5 0
10 5 5
-5 5 5
5 0 5
-8.88178419700125e-16 0 0
0 0 5
0 5 5
0 5 0
0 10 5
0 10 0
0 0 10
0 5 10
5 0 0
5 10 0
5 0 10
5 5 10

CELLS 44 132
2 10 14
2 0 12
2 4 21
2 1 8
2 0 7
2 0 5
2 11 3
2 1 6
2 16 4
2 14 3
2 19 23
2 5 13
2 17 21
2 6 9
2 5 10
2 2 21
2 8 9
2 18 22
2 7 10
2 3 2
2 2 8
2 12 20
2 3 4
2 15 2
2 7 15
2 12 13
2 13 14
2 15 14
2 12 15
2 16 14
2 17 16
2 17 15
2 20 11
2 20 1
2 18 13
2 14 19
2 18 19
2 13 11
2 20 2
2 3 9
2 11 6
2 11 22
2 3 23
2 22 23

CELL_TYPES 44
3 
3 
3 
3 
3 
3 
3 
3 
3 
3 
3 
3 
3 
3 
3 
3 
3 
3 
3 
3 
3 
3 
3 
3 
3 
3 
3 
3 
3 
3 
3 
3 
3 
3 
3 
3 
3 
3 
3 
3 
3 
3 
3 
3 
POINT_DATA 24
SCALARS GMDS_ID int 1
LOOKUP_TABLE default
0 3 4 5 6 8 9 12 13 14 15 17 18 19 20 21 22 23 24 25 26 27 28 29 
SCALARS geom_link_dim int 1
LOOKUP_TABLE default
1 1 1 1 1 1 1 1 1 1 1 1 2 1 1 1 1 1 1 1 2 1 1 1 
SCALARS geom_link_id int 1
LOOKUP_TABLE default
5 6 15 12 22 7 10 19 14 20 13 9 17 1 4 18 21 17 2 3 17 16 8 11 


CELL_DATA 44
SCALARS GMDS_ID int 1
LOOKUP_TABLE default
2 4 7 9 10 12 13 14 17 19 20 21 22 24 26 28 29 30 31 33 34 35 37 38 39 41 42 43 44 49 50 51 52 54 56 57 58 59 60 61 62 64 65 66 

SCALARS geom_link_dim int 1
LOOKUP_TABLE default
2 2 2 2 2 2 2 2 2 2 2 2 2 2 2 2 2 2 2 2 2 2 2 3 2 3 2 2 3 2 2 2 3 2 2 2 2 3 3 2 2 2 2 2 

SCALARS geom_link_id int 1
LOOKUP_TABLE default
9 17 35 11 10 27 2 30 21 4 33 6 13 32 34 7 25 31 20 3 16 17 28 1 23 2 5 1 1 24 36 12 2 17 8 14 15 2 1 19 22 29 18 26 

