# vtk DataFile Version 3.0
Generated by GMDS VTK Writer

ASCII
DATASET UNSTRUCTURED_GRID
POINTS 34 float
-5 10 0
10 10 0
-5 0 10
-5 10 10
10 10 10
10 0 10
-5 0 5
10 0 5
10 10 5
-5 10 5
-5 5 0
10 5 0
10 5 5
-5 5 5
10 5 10
-5 5 10
-8.88178419700125e-16 0 0
0 0 5
0 5 5
0 5 0
0 10 5
0 10 0
0 0 10
0 5 10
-8.88178419700125e-16 10 10
5 0 0
5 0 5
5 5 5
5 5 0
5 10 5
5 10 0
5 0 10
5 5 10
5 10 10

CELLS 68 204
2 16 25
2 13 18
2 28 11
2 17 26
2 18 27
2 11 1
2 10 0
2 6 2
2 7 5
2 1 8
2 8 4
2 0 9
2 9 3
2 25 26
2 6 17
2 7 12
2 12 8
2 6 13
2 13 9
2 27 12
2 11 12
2 19 28
2 10 13
2 5 14
2 14 4
2 2 15
2 15 3
2 14 12
2 26 7
2 15 13
2 10 19
2 16 17
2 17 18
2 19 18
2 16 19
2 9 20
2 0 21
2 20 18
2 21 20
2 21 19
2 2 22
2 15 23
2 22 17
2 18 23
2 22 23
2 3 24
2 24 20
2 24 23
2 26 27
2 27 28
2 25 28
2 20 29
2 29 8
2 30 1
2 27 29
2 29 30
2 28 30
2 22 31
2 31 5
2 23 32
2 32 14
2 26 31
2 27 32
2 31 32
2 24 33
2 33 4
2 29 33
2 32 33

CELL_TYPES 68
3 
3 
3 
3 
3 
3 
3 
3 
3 
3 
3 
3 
3 
3 
3 
3 
3 
3 
3 
3 
3 
3 
3 
3 
3 
3 
3 
3 
3 
3 
3 
3 
3 
3 
3 
3 
3 
3 
3 
3 
3 
3 
3 
3 
3 
3 
3 
3 
3 
3 
3 
3 
3 
3 
3 
3 
3 
3 
3 
3 
3 
3 
3 
3 
3 
3 
3 
3 
POINT_DATA 34
SCALARS GMDS_ID int 1
LOOKUP_TABLE default
1 2 4 5 6 7 8 9 10 11 12 13 14 15 16 17 18 19 20 21 22 23 24 25 26 27 28 29 30 31 32 33 34 35 
SCALARS geom_link_dim_0 int 1
LOOKUP_TABLE default
0 0 0 0 0 0 0 0 0 0 0 0 0 0 0 0 0 0 0 0 0 0 0 0 0 0 0 0 0 0 0 0 0 0 
SCALARS geom_link_id_0 int 1
LOOKUP_TABLE default
0 0 0 0 0 0 0 0 0 0 0 0 0 0 0 0 0 0 0 0 0 0 0 0 0 0 0 0 0 0 0 0 0 0 


CELL_DATA 68
SCALARS GMDS_ID int 1
LOOKUP_TABLE default
1 2 3 5 7 8 11 13 15 16 17 18 19 20 21 24 25 26 27 28 29 30 31 32 33 34 35 36 37 38 39 41 42 43 44 45 47 49 50 51 52 54 56 57 58 59 61 62 63 64 65 66 67 69 70 71 72 73 74 75 76 77 78 79 80 81 82 83 

SCALARS geom_link_dim_0 int 1
LOOKUP_TABLE default
0 0 0 0 0 0 0 0 0 0 0 0 0 0 0 0 0 0 0 0 0 0 0 0 0 0 0 0 0 0 0 0 0 0 0 0 0 0 0 0 0 0 0 0 0 0 0 0 0 0 0 0 0 0 0 0 0 0 0 0 0 0 0 0 0 0 0 0 

SCALARS geom_link_id_0 int 1
LOOKUP_TABLE default
0 0 0 0 0 0 0 0 0 0 0 0 0 0 0 0 0 0 0 0 0 0 0 0 0 0 0 0 0 0 0 0 0 0 0 0 0 0 0 0 0 0 0 0 0 0 0 0 0 0 0 0 0 0 0 0 0 0 0 0 0 0 0 0 0 0 0 0 

