# vtk DataFile Version 3.0
Generated by GMDS VTK Writer

ASCII
DATASET UNSTRUCTURED_GRID
POINTS 16 float
-5 0 0
-5 10 0
10 10 0
10 0 0
-5 0 10
-5 10 10
-5 0 5
10 0 5
10 10 5
-5 10 5
5 0 0
5 10 0
5 10 5
5 0 5
5 10 10
5 0 10

CELLS 28 84
2 0 1
2 2 3
2 4 5
2 11 2
2 1 11
2 0 10
2 10 3
2 0 6
2 6 4
2 3 7
2 2 8
2 1 9
2 9 5
2 8 7
2 6 9
2 9 12
2 12 8
2 6 13
2 13 7
2 10 11
2 11 12
2 13 12
2 10 13
2 5 14
2 4 15
2 14 12
2 15 14
2 15 13

CELL_TYPES 28
3 
3 
3 
3 
3 
3 
3 
3 
3 
3 
3 
3 
3 
3 
3 
3 
3 
3 
3 
3 
3 
3 
3 
3 
3 
3 
3 
3 
POINT_DATA 16
SCALARS GMDS_ID int 1
LOOKUP_TABLE default
0 1 2 3 4 5 8 9 10 11 12 13 14 15 16 17 
SCALARS geom_link_dim int 1
LOOKUP_TABLE default
1 0 0 1 0 0 1 1 0 0 2 1 1 1 0 1 
SCALARS geom_link_id int 1
LOOKUP_TABLE default
5 -1 -1 6 -1 -1 7 10 -1 -1 17 16 22 9 -1 8 


CELL_DATA 28
SCALARS GMDS_ID int 1
LOOKUP_TABLE default
0 1 2 4 5 6 7 8 9 10 12 14 15 16 17 18 19 20 21 22 23 24 25 26 28 30 31 32 

SCALARS geom_link_dim int 1
LOOKUP_TABLE default
0 0 0 0 0 2 2 2 0 2 0 0 0 0 0 0 0 0 2 0 2 0 0 0 0 0 0 2 

SCALARS geom_link_id int 1
LOOKUP_TABLE default
0 0 0 0 0 17 17 27 0 30 0 0 0 0 0 0 0 0 22 0 35 0 0 0 0 0 0 29 

