# vtk DataFile Version 3.0
Generated by GMDS VTK Writer

ASCII
DATASET UNSTRUCTURED_GRID
POINTS 24 float
-5 0 0
10 0 0
5 5 5
10 5 5
5 10 0
5 0 0
5 0 10
10 0 5
5 0 5
5 10 5
-5 0 5
8.88178419700125e-16 0 0
0 10 0
0 10 5
0 0 5
0 0 10
5 5 10
-5 5 0
-5 5 5
0 5 5
0 5 0
10 5 0
5 5 0
0 5 10

CELLS 44 132
2 1 7
2 8 2
2 13 9
2 12 4
2 11 5
2 0 11
2 1 5
2 16 2
2 5 8
2 8 6
2 4 9
2 7 8
2 0 10
2 7 3
2 6 16
2 3 2
2 10 14
2 14 8
2 12 13
2 11 14
2 2 9
2 15 6
2 15 14
2 0 17
2 10 18
2 14 19
2 19 13
2 11 20
2 20 12
2 17 18
2 18 19
2 20 19
2 17 20
2 1 21
2 5 22
2 22 4
2 21 22
2 22 2
2 21 3
2 2 19
2 22 20
2 15 23
2 19 23
2 16 23

CELL_TYPES 44
3 
3 
3 
3 
3 
3 
3 
3 
3 
3 
3 
3 
3 
3 
3 
3 
3 
3 
3 
3 
3 
3 
3 
3 
3 
3 
3 
3 
3 
3 
3 
3 
3 
3 
3 
3 
3 
3 
3 
3 
3 
3 
3 
3 
POINT_DATA 24
SCALARS GMDS_ID int 1
LOOKUP_TABLE default
0 3 4 5 8 9 10 13 14 15 16 18 19 20 21 23 24 26 27 28 29 30 31 32 
SCALARS geom_link_dim int 1
LOOKUP_TABLE default
1 1 1 1 1 2 1 1 1 1 1 2 1 1 1 1 1 1 1 1 1 1 1 1 
SCALARS geom_link_id int 1
LOOKUP_TABLE default
5 6 12 20 16 17 8 10 9 22 7 17 17 21 1 2 11 19 13 4 18 14 15 3 


CELL_DATA 44
SCALARS GMDS_ID int 1
LOOKUP_TABLE default
1 4 8 9 10 11 14 15 24 25 26 29 32 33 35 38 39 40 42 44 45 48 51 53 55 57 58 59 60 61 62 63 64 65 67 68 69 70 71 72 73 74 76 77 

SCALARS geom_link_dim int 1
LOOKUP_TABLE default
2 2 2 2 2 2 2 2 3 2 2 2 2 2 2 2 2 3 2 3 2 2 2 2 2 2 2 3 2 2 2 2 2 2 3 2 2 2 2 2 3 2 2 2 

SCALARS geom_link_id int 1
LOOKUP_TABLE default
30 2 21 13 17 17 17 18 2 29 35 22 27 32 26 19 6 2 36 1 28 31 8 10 34 5 24 1 12 20 9 1 23 11 1 7 16 3 25 4 1 15 14 33 

