# vtk DataFile Version 3.0
Generated by GMDS VTK Writer

ASCII
DATASET UNSTRUCTURED_GRID
POINTS 33 float
-5 0 0
-5 10 0
10 10 0
10 0 0
5 5 5
10 5 5
10 10 10
10 0 10
5 10 0
5 0 0
5 0 10
5 10 10
10 10 5
10 0 5
5 0 5
5 10 5
-5 0 5
-5 10 5
8.88178419700125e-16 0 0
0 10 0
0 10 5
0 0 5
8.88178419700125e-16 10 10
0 0 10
5 5 10
10 5 10
-5 5 0
-5 5 5
0 5 5
0 5 0
10 5 0
5 5 0
0 5 10

CELLS 67 201
2 3 13
2 13 7
2 14 4
2 2 12
2 12 6
2 20 15
2 19 8
2 18 9
2 0 18
2 2 8
2 25 6
2 3 9
2 24 4
2 7 10
2 7 25
2 6 11
2 24 11
2 17 20
2 1 19
2 9 14
2 14 10
2 8 15
2 15 11
2 13 14
2 12 15
2 0 16
2 13 5
2 1 17
2 10 24
2 25 24
2 5 4
2 16 21
2 21 14
2 19 20
2 18 21
2 4 15
2 22 11
2 5 12
2 23 10
2 22 20
2 23 21
2 25 5
2 0 26
2 26 1
2 16 27
2 27 17
2 21 28
2 28 20
2 18 29
2 29 19
2 26 27
2 27 28
2 29 28
2 26 29
2 3 30
2 30 2
2 9 31
2 31 8
2 30 31
2 31 4
2 30 5
2 4 28
2 31 29
2 23 32
2 32 22
2 28 32
2 24 32

CELL_TYPES 67
3 
3 
3 
3 
3 
3 
3 
3 
3 
3 
3 
3 
3 
3 
3 
3 
3 
3 
3 
3 
3 
3 
3 
3 
3 
3 
3 
3 
3 
3 
3 
3 
3 
3 
3 
3 
3 
3 
3 
3 
3 
3 
3 
3 
3 
3 
3 
3 
3 
3 
3 
3 
3 
3 
3 
3 
3 
3 
3 
3 
3 
3 
3 
3 
3 
3 
3 
POINT_DATA 33
SCALARS GMDS_ID int 1
LOOKUP_TABLE default
0 1 2 3 4 5 6 7 8 9 10 11 12 13 14 15 16 17 18 19 20 21 22 23 24 25 26 27 28 29 30 31 32 
SCALARS geom_link_dim int 1
LOOKUP_TABLE default
1 0 0 1 0 1 0 0 1 2 1 0 0 1 1 1 1 0 2 1 1 1 0 1 1 0 1 1 1 1 1 1 1 
SCALARS geom_link_id int 1
LOOKUP_TABLE default
5 -1 -1 6 -1 20 -1 -1 16 17 8 -1 -1 10 9 22 7 -1 17 17 21 1 -1 2 11 -1 19 13 4 18 14 15 3 


CELL_DATA 67
SCALARS GMDS_ID int 1
LOOKUP_TABLE default
1 3 4 5 7 8 9 10 11 12 13 14 15 16 17 18 19 21 23 24 25 26 27 29 31 32 33 34 35 36 38 39 40 42 44 45 46 47 48 49 51 52 53 54 55 56 57 58 59 60 61 62 63 64 65 66 67 68 69 70 71 72 73 74 75 76 77 

SCALARS geom_link_dim int 1
LOOKUP_TABLE default
2 0 0 0 0 2 2 2 2 0 0 2 0 0 0 0 0 0 0 0 2 2 0 2 0 2 2 0 2 0 0 2 0 2 0 0 0 0 2 0 2 0 2 0 2 0 2 2 0 2 2 2 0 2 2 0 0 2 2 0 2 0 0 2 0 2 2 

SCALARS geom_link_id int 1
LOOKUP_TABLE default
30 0 -1 0 0 21 13 17 17 0 -1 17 -1 0 -1 0 -1 0 0 0 29 35 0 22 0 27 32 0 26 -1 -1 6 0 36 0 -1 0 -1 31 0 8 -1 10 -1 34 -1 5 24 -1 12 20 9 -1 23 11 -1 -1 7 16 -1 25 -1 -1 15 -1 14 33 

