# vtk DataFile Version 3.0
Generated by GMDS VTK Writer

ASCII
DATASET UNSTRUCTURED_GRID
POINTS 24 float
-5 0 0
10 0 0
0 5 5
-4.44089209850063e-16 0 0
0 10 0
-5 0 5
10 0 5
5 0 0
5 10 0
5 10 5
5 0 5
0 5 0
5 0 10
-5 5 0
-5 5 5
5 5 5
5 5 0
10 5 5
10 5 0
5 5 10
0 10 5
0 0 5
0 0 10
0 5 10

CELLS 44 132
2 5 14
2 3 21
2 10 15
2 5 21
2 0 13
2 3 7
2 7 1
2 0 5
2 1 6
2 11 2
2 0 3
2 15 9
2 21 2
2 22 12
2 10 6
2 8 9
2 3 11
2 7 10
2 13 11
2 4 20
2 20 9
2 2 15
2 21 10
2 12 10
2 7 16
2 16 8
2 13 14
2 16 15
2 6 17
2 1 18
2 17 15
2 18 17
2 18 16
2 14 2
2 12 19
2 11 16
2 15 19
2 4 11
2 20 2
2 4 8
2 23 19
2 22 21
2 2 23
2 22 23

CELL_TYPES 44
3 
3 
3 
3 
3 
3 
3 
3 
3 
3 
3 
3 
3 
3 
3 
3 
3 
3 
3 
3 
3 
3 
3 
3 
3 
3 
3 
3 
3 
3 
3 
3 
3 
3 
3 
3 
3 
3 
3 
3 
3 
3 
3 
3 
POINT_DATA 24
SCALARS GMDS_ID int 1
LOOKUP_TABLE default
0 3 5 6 7 8 9 12 13 14 15 16 17 18 19 20 21 22 23 25 26 27 28 29 
SCALARS geom_link_dim int 1
LOOKUP_TABLE default
1 1 1 2 1 1 1 2 1 1 1 1 1 1 1 1 1 1 1 1 1 1 1 1 
SCALARS geom_link_id int 1
LOOKUP_TABLE default
5 6 4 17 17 7 10 17 16 22 9 18 8 19 13 12 15 20 14 11 21 1 2 3 


CELL_DATA 44
SCALARS GMDS_ID int 1
LOOKUP_TABLE default
1 2 3 4 5 6 11 12 14 15 17 20 21 23 27 29 30 31 32 33 35 36 37 38 39 40 41 43 45 47 49 50 51 53 54 55 57 60 61 62 63 64 65 66 

SCALARS geom_link_dim int 1
LOOKUP_TABLE default
2 3 2 2 2 2 2 2 2 2 2 2 2 2 2 2 3 3 2 2 2 2 3 2 3 2 2 2 2 2 2 2 2 2 2 3 2 2 2 2 2 2 2 2 

SCALARS geom_link_id int 1
LOOKUP_TABLE default
34 2 2 6 10 17 17 27 30 1 17 28 5 31 22 35 1 1 23 36 21 4 2 29 1 7 20 3 32 11 19 25 16 9 26 1 18 12 24 13 33 8 14 15 

