# vtk DataFile Version 3.0
Generated by GMDS VTK Writer

ASCII
DATASET UNSTRUCTURED_GRID
POINTS 28 float
-5 0 0
10 0 0
10 0 10
-5 0 5
10 0 5
-8.88178419700125e-16 0 0
0 10 0
0 10 5
0 0 5
-8.88178419700125e-16 10 10
0 0 10
5 0 0
5 10 0
5 10 5
5 0 5
5 10 10
5 0 10
0 5 0
0 5 5
5 5 5
5 5 0
-5 5 0
-5 5 5
0 5 10
10 5 5
10 5 0
5 5 10
10 5 10

CELLS 54 162
2 6 12
2 7 13
2 5 11
2 11 1
2 8 18
2 0 5
2 14 19
2 0 3
2 1 4
2 4 2
2 18 7
2 3 8
2 19 13
2 6 7
2 5 8
2 5 17
2 17 6
2 9 7
2 10 8
2 8 14
2 14 4
2 12 13
2 11 14
2 9 15
2 10 16
2 16 2
2 13 15
2 14 16
2 11 20
2 20 12
2 17 18
2 18 19
2 20 19
2 17 20
2 0 21
2 3 22
2 21 22
2 22 18
2 21 17
2 10 23
2 23 9
2 18 23
2 4 24
2 1 25
2 24 19
2 25 24
2 25 20
2 16 26
2 26 15
2 23 26
2 19 26
2 2 27
2 27 26
2 27 24

CELL_TYPES 54
3 
3 
3 
3 
3 
3 
3 
3 
3 
3 
3 
3 
3 
3 
3 
3 
3 
3 
3 
3 
3 
3 
3 
3 
3 
3 
3 
3 
3 
3 
3 
3 
3 
3 
3 
3 
3 
3 
3 
3 
3 
3 
3 
3 
3 
3 
3 
3 
3 
3 
3 
3 
3 
3 
POINT_DATA 28
SCALARS GMDS_ID int 1
LOOKUP_TABLE default
0 3 7 8 9 12 13 14 15 16 17 18 19 20 21 22 23 24 25 26 27 28 29 31 32 33 34 35 
SCALARS geom_link_dim_0 int 1
LOOKUP_TABLE default
0 0 0 0 0 0 0 0 0 0 0 0 0 0 0 0 0 0 0 0 0 0 0 0 0 0 0 0 
SCALARS geom_link_id_0 int 1
LOOKUP_TABLE default
0 0 0 0 0 0 0 0 0 0 0 0 0 0 0 0 0 0 0 0 0 0 0 0 0 0 0 0 


CELL_DATA 54
SCALARS GMDS_ID int 1
LOOKUP_TABLE default
1 3 5 7 8 10 11 12 14 15 25 26 27 29 31 33 35 36 38 39 40 42 44 45 47 48 49 51 52 53 54 55 56 57 58 60 62 63 64 67 68 70 72 74 76 77 78 79 80 81 82 83 85 86 

SCALARS geom_link_dim_0 int 1
LOOKUP_TABLE default
0 0 0 0 0 0 0 0 0 0 0 0 0 0 0 0 0 0 0 0 0 0 0 0 0 0 0 0 0 0 0 0 0 0 0 0 0 0 0 0 0 0 0 0 0 0 0 0 0 0 0 0 0 0 

SCALARS geom_link_id_0 int 1
LOOKUP_TABLE default
0 0 0 0 0 0 0 0 0 0 0 0 0 0 0 0 0 0 0 0 0 0 0 0 0 0 0 0 0 0 0 0 0 0 0 0 0 0 0 0 0 0 0 0 0 0 0 0 0 0 0 0 0 0 

