# vtk DataFile Version 3.0
Generated by GMDS VTK Writer

ASCII
DATASET UNSTRUCTURED_GRID
POINTS 35 float
-5 10 0
10 10 0
10 0 0
-5 0 10
-5 10 10
10 10 10
10 0 10
-5 0 5
10 0 5
10 10 5
-5 10 5
-5 5 0
10 5 0
10 5 5
-5 5 5
10 5 10
-5 5 10
-8.88178419700125e-16 0 0
0 0 5
0 5 5
0 5 0
0 10 5
0 10 0
0 0 10
0 5 10
-8.88178419700125e-16 10 10
5 0 0
5 0 5
5 5 5
5 5 0
5 10 5
5 10 0
5 0 10
5 5 10
5 10 10

CELLS 72 216
2 17 26
2 14 19
2 29 12
2 18 27
2 19 28
2 12 1
2 2 12
2 11 0
2 7 3
2 2 8
2 8 6
2 1 9
2 9 5
2 0 10
2 10 4
2 26 27
2 7 18
2 26 2
2 8 13
2 13 9
2 7 14
2 14 10
2 28 13
2 12 13
2 20 29
2 11 14
2 6 15
2 15 5
2 3 16
2 16 4
2 15 13
2 27 8
2 16 14
2 11 20
2 17 18
2 18 19
2 20 19
2 17 20
2 10 21
2 0 22
2 21 19
2 22 21
2 22 20
2 3 23
2 16 24
2 23 18
2 19 24
2 23 24
2 4 25
2 25 21
2 25 24
2 27 28
2 28 29
2 26 29
2 21 30
2 30 9
2 22 31
2 31 1
2 28 30
2 30 31
2 29 31
2 23 32
2 32 6
2 24 33
2 33 15
2 27 32
2 28 33
2 32 33
2 25 34
2 34 5
2 30 34
2 33 34

CELL_TYPES 72
3 
3 
3 
3 
3 
3 
3 
3 
3 
3 
3 
3 
3 
3 
3 
3 
3 
3 
3 
3 
3 
3 
3 
3 
3 
3 
3 
3 
3 
3 
3 
3 
3 
3 
3 
3 
3 
3 
3 
3 
3 
3 
3 
3 
3 
3 
3 
3 
3 
3 
3 
3 
3 
3 
3 
3 
3 
3 
3 
3 
3 
3 
3 
3 
3 
3 
3 
3 
3 
3 
3 
3 
POINT_DATA 35
SCALARS GMDS_ID int 1
LOOKUP_TABLE default
1 2 3 4 5 6 7 8 9 10 11 12 13 14 15 16 17 18 19 20 21 22 23 24 25 26 27 28 29 30 31 32 33 34 35 
SCALARS geom_link_dim_0 int 1
LOOKUP_TABLE default
0 0 0 0 0 0 0 0 0 0 0 0 0 0 0 0 0 0 0 0 0 0 0 0 0 0 0 0 0 0 0 0 0 0 0 
SCALARS geom_link_id_0 int 1
LOOKUP_TABLE default
0 0 0 0 0 0 0 0 0 0 0 0 0 0 0 0 0 0 0 0 0 0 0 0 0 0 0 0 0 0 0 0 0 0 0 


CELL_DATA 72
SCALARS GMDS_ID int 1
LOOKUP_TABLE default
1 2 3 5 7 8 9 11 13 14 15 16 17 18 19 20 21 22 24 25 26 27 28 29 30 31 32 33 34 35 36 37 38 39 41 42 43 44 45 47 49 50 51 52 54 56 57 58 59 61 62 63 64 65 66 67 68 69 70 71 72 73 74 75 76 77 78 79 80 81 82 83 

SCALARS geom_link_dim_0 int 1
LOOKUP_TABLE default
0 0 0 0 0 0 0 0 0 0 0 0 0 0 0 0 0 0 0 0 0 0 0 0 0 0 0 0 0 0 0 0 0 0 0 0 0 0 0 0 0 0 0 0 0 0 0 0 0 0 0 0 0 0 0 0 0 0 0 0 0 0 0 0 0 0 0 0 0 0 0 0 

SCALARS geom_link_id_0 int 1
LOOKUP_TABLE default
0 0 0 0 0 0 0 0 0 0 0 0 0 0 0 0 0 0 0 0 0 0 0 0 0 0 0 0 0 0 0 0 0 0 0 0 0 0 0 0 0 0 0 0 0 0 0 0 0 0 0 0 0 0 0 0 0 0 0 0 0 0 0 0 0 0 0 0 0 0 0 0 

