# vtk DataFile Version 3.0
Generated by GMDS VTK Writer

ASCII
DATASET UNSTRUCTURED_GRID
POINTS 28 float
-5 0 0
-5 10 0
10 10 0
10 0 0
5 5 0
5 5 5
5 10 5
-5 0 5
10 0 5
10 10 5
-5 10 5
-5 5 0
10 5 0
10 5 5
-5 5 5
5 0 5
-8.88178419700125e-16 0 0
0 0 5
0 5 5
0 5 0
0 10 5
0 10 0
0 0 10
0 5 10
5 0 0
5 10 0
5 0 10
5 5 10

CELLS 54 162
2 6 9
2 14 18
2 0 16
2 25 2
2 6 25
2 12 2
2 3 12
2 0 11
2 11 1
2 0 7
2 15 5
2 3 8
2 2 9
2 20 6
2 1 10
2 18 5
2 23 27
2 7 17
2 21 25
2 8 13
2 13 9
2 7 14
2 14 10
2 4 25
2 12 13
2 22 26
2 11 14
2 5 4
2 4 12
2 16 24
2 5 6
2 19 4
2 11 19
2 16 17
2 17 18
2 19 18
2 16 19
2 10 20
2 1 21
2 20 18
2 21 20
2 21 19
2 24 15
2 24 3
2 22 17
2 18 23
2 22 23
2 17 15
2 24 4
2 5 13
2 15 8
2 15 26
2 5 27
2 26 27

CELL_TYPES 54
3 
3 
3 
3 
3 
3 
3 
3 
3 
3 
3 
3 
3 
3 
3 
3 
3 
3 
3 
3 
3 
3 
3 
3 
3 
3 
3 
3 
3 
3 
3 
3 
3 
3 
3 
3 
3 
3 
3 
3 
3 
3 
3 
3 
3 
3 
3 
3 
3 
3 
3 
3 
3 
3 
POINT_DATA 28
SCALARS GMDS_ID int 1
LOOKUP_TABLE default
0 1 2 3 4 5 6 8 9 10 11 12 13 14 15 17 18 19 20 21 22 23 24 25 26 27 28 29 
SCALARS geom_link_dim int 1
LOOKUP_TABLE default
1 0 0 1 1 1 1 1 1 0 0 1 1 1 1 1 2 1 1 1 1 1 1 1 2 1 1 1 
SCALARS geom_link_id int 1
LOOKUP_TABLE default
5 -1 -1 6 15 12 22 7 10 -1 -1 19 14 20 13 9 17 1 4 18 21 17 2 3 17 16 8 11 


CELL_DATA 54
SCALARS GMDS_ID int 1
LOOKUP_TABLE default
1 2 4 5 7 8 9 10 11 12 13 14 16 17 18 19 20 21 22 24 25 26 27 28 29 30 31 33 34 35 37 38 39 41 42 43 44 45 47 49 50 51 52 54 56 57 58 59 60 61 62 64 65 66 

SCALARS geom_link_dim int 1
LOOKUP_TABLE default
0 2 2 0 2 0 2 2 0 2 2 2 0 2 0 2 2 2 2 2 0 2 0 2 2 2 2 0 2 2 2 0 2 0 2 0 0 0 0 2 2 2 0 2 2 2 2 0 0 2 2 2 2 2 

SCALARS geom_link_id int 1
LOOKUP_TABLE default
0 9 17 0 35 0 11 10 0 27 2 30 0 21 0 4 33 6 13 32 0 34 0 7 25 31 20 0 16 17 28 0 23 0 5 0 0 0 0 24 36 12 0 17 8 14 15 0 0 19 22 29 18 26 

