# vtk DataFile Version 3.0
Generated by GMDS VTK Writer

ASCII
DATASET UNSTRUCTURED_GRID
POINTS 26 float
-5 0 0
10 0 0
5 5 5
5 5 0
0 10 0
-4.44089209850063e-16 0 0
-5 0 5
10 0 5
5 0 0
5 10 0
5 10 5
5 0 5
5 10 10
5 0 10
0 10 5
0 0 5
-4.44089209850063e-16 10 10
0 0 10
10 5 5
10 5 0
-5 5 0
-5 5 5
0 5 5
0 5 0
0 5 10
5 5 10

CELLS 49 147
2 2 10
2 8 1
2 0 6
2 3 9
2 1 7
2 5 8
2 0 5
2 7 18
2 11 7
2 9 10
2 8 11
2 4 9
2 12 10
2 13 11
2 14 10
2 6 15
2 15 11
2 4 14
2 5 15
2 11 2
2 16 12
2 8 3
2 17 13
2 16 14
2 17 15
2 1 19
2 3 2
2 18 2
2 19 18
2 19 3
2 0 20
2 6 21
2 15 22
2 22 14
2 5 23
2 23 4
2 20 21
2 21 22
2 23 22
2 20 23
2 2 22
2 23 3
2 17 24
2 24 16
2 13 25
2 25 12
2 22 24
2 2 25
2 25 24

CELL_TYPES 49
3 
3 
3 
3 
3 
3 
3 
3 
3 
3 
3 
3 
3 
3 
3 
3 
3 
3 
3 
3 
3 
3 
3 
3 
3 
3 
3 
3 
3 
3 
3 
3 
3 
3 
3 
3 
3 
3 
3 
3 
3 
3 
3 
3 
3 
3 
3 
3 
3 
POINT_DATA 26
SCALARS GMDS_ID int 1
LOOKUP_TABLE default
0 2 3 4 5 6 7 8 10 11 12 13 14 15 16 17 18 19 20 21 22 23 24 25 26 27 
SCALARS geom_link_dim int 1
LOOKUP_TABLE default
1 1 1 1 1 2 1 1 2 1 1 1 0 1 1 1 0 1 1 1 1 1 1 1 1 1 
SCALARS geom_link_id int 1
LOOKUP_TABLE default
5 6 12 15 17 17 7 10 17 16 22 9 -1 8 21 1 -1 2 20 14 19 13 4 18 3 11 


CELL_DATA 49
SCALARS GMDS_ID int 1
LOOKUP_TABLE default
0 2 3 4 5 6 7 9 10 11 12 14 15 16 17 18 19 20 21 22 23 24 25 26 27 28 29 30 31 32 33 35 37 38 39 40 41 42 43 44 45 46 47 48 49 50 51 52 53 

SCALARS geom_link_dim int 1
LOOKUP_TABLE default
2 2 2 2 2 2 2 2 2 2 0 2 0 2 2 2 0 2 0 2 0 0 2 0 2 2 2 2 2 2 2 2 2 2 0 2 2 2 2 2 0 0 2 0 2 0 2 2 2 

SCALARS geom_link_id int 1
LOOKUP_TABLE default
28 17 27 7 30 17 17 32 22 35 0 13 0 29 21 6 0 36 0 2 0 0 31 0 8 11 3 19 25 16 10 34 5 24 0 12 20 9 1 23 0 0 15 0 26 0 14 18 33 

