# vtk DataFile Version 3.0
Generated by GMDS VTK Writer

ASCII
DATASET UNSTRUCTURED_GRID
POINTS 24 float
-5 0 0
10 0 0
5 10 0
5 0 0
5 0 10
10 5 0
5 5 10
5 5 0
-5 5 0
8.88178419700125e-16 0 0
0 0 10
0 5 10
0 5 0
0 10 0
5 0 5
5 5 5
0 5 5
0 0 5
10 0 5
10 5 5
5 10 5
-5 5 5
-5 0 5
0 10 5

CELLS 44 132
2 3 9
2 1 5
2 9 0
2 14 4
2 1 3
2 12 16
2 16 11
2 3 14
2 6 11
2 4 10
2 4 6
2 3 7
2 7 2
2 5 7
2 0 8
2 15 6
2 7 15
2 7 12
2 12 8
2 10 11
2 9 12
2 2 13
2 13 12
2 9 17
2 17 10
2 14 15
2 15 16
2 17 16
2 14 17
2 1 18
2 5 19
2 18 14
2 19 15
2 18 19
2 2 20
2 20 15
2 8 21
2 0 22
2 21 16
2 22 21
2 22 17
2 13 23
2 16 23
2 20 23

CELL_TYPES 44
3 
3 
3 
3 
3 
3 
3 
3 
3 
3 
3 
3 
3 
3 
3 
3 
3 
3 
3 
3 
3 
3 
3 
3 
3 
3 
3 
3 
3 
3 
3 
3 
3 
3 
3 
3 
3 
3 
3 
3 
3 
3 
3 
3 
POINT_DATA 24
SCALARS GMDS_ID int 1
LOOKUP_TABLE default
0 3 8 9 10 12 14 15 17 18 19 20 21 23 24 25 26 27 28 29 30 32 33 34 
SCALARS geom_link_dim int 1
LOOKUP_TABLE default
1 1 1 2 1 1 1 1 1 2 1 1 1 1 1 1 1 1 1 1 1 1 1 1 
SCALARS geom_link_id int 1
LOOKUP_TABLE default
5 6 16 17 8 14 11 15 19 17 2 3 18 17 9 12 4 1 10 20 22 13 7 21 


CELL_DATA 44
SCALARS GMDS_ID int 1
LOOKUP_TABLE default
2 5 6 13 14 15 17 19 20 22 24 26 27 31 34 36 38 39 40 42 44 47 51 52 53 54 55 56 57 58 60 62 63 64 65 69 72 74 76 77 78 79 81 82 

SCALARS geom_link_dim int 1
LOOKUP_TABLE default
2 2 2 2 2 2 2 3 2 2 2 3 2 2 2 2 2 3 2 2 3 2 2 3 2 2 2 2 3 2 2 2 2 2 2 2 2 2 2 2 2 2 2 2 

SCALARS geom_link_id int 1
LOOKUP_TABLE default
17 11 17 29 17 1 14 2 33 31 26 1 7 16 10 18 3 1 23 15 1 13 12 2 8 2 4 5 2 30 25 22 19 32 35 28 20 27 9 34 6 36 24 21 

