# vtk DataFile Version 3.0
Generated by GMDS VTK Writer

ASCII
DATASET UNSTRUCTURED_GRID
POINTS 24 float
-5 0 0
-5 10 0
10 10 0
10 0 0
-5 0 10
-5 10 10
-5 0 5
10 0 5
10 10 5
-5 10 5
5 0 0
5 10 0
5 10 5
5 0 5
5 10 10
5 0 10
-5 5 0
-5 5 5
5 5 5
5 5 0
10 5 5
10 5 0
-5 5 10
5 5 10

CELLS 46 138
2 6 17
2 13 18
2 0 16
2 16 1
2 11 2
2 1 11
2 0 10
2 10 3
2 0 6
2 6 4
2 3 7
2 2 8
2 1 9
2 9 5
2 18 12
2 17 9
2 9 12
2 12 8
2 6 13
2 13 7
2 11 12
2 10 13
2 5 14
2 4 15
2 14 12
2 15 13
2 10 19
2 19 11
2 16 17
2 17 18
2 19 18
2 16 19
2 7 20
2 20 8
2 3 21
2 21 2
2 20 18
2 21 20
2 21 19
2 4 22
2 22 5
2 15 23
2 23 14
2 22 17
2 18 23
2 22 23

CELL_TYPES 46
3 
3 
3 
3 
3 
3 
3 
3 
3 
3 
3 
3 
3 
3 
3 
3 
3 
3 
3 
3 
3 
3 
3 
3 
3 
3 
3 
3 
3 
3 
3 
3 
3 
3 
3 
3 
3 
3 
3 
3 
3 
3 
3 
3 
3 
3 
POINT_DATA 24
SCALARS GMDS_ID int 1
LOOKUP_TABLE default
0 1 2 3 4 5 8 9 10 11 12 13 14 15 16 17 18 19 20 21 22 23 24 25 
SCALARS geom_link_dim int 1
LOOKUP_TABLE default
1 0 0 1 0 0 1 1 0 0 2 1 1 1 0 1 1 1 1 1 1 1 0 1 
SCALARS geom_link_id int 1
LOOKUP_TABLE default
5 -1 -1 6 -1 -1 7 10 -1 -1 17 16 22 9 -1 8 19 13 12 15 20 14 -1 11 


CELL_DATA 46
SCALARS GMDS_ID int 1
LOOKUP_TABLE default
1 3 5 7 8 9 10 11 12 13 14 16 18 19 20 22 24 25 26 27 29 31 32 34 36 38 39 40 41 42 43 44 45 46 47 48 49 50 51 52 53 54 55 56 57 58 

SCALARS geom_link_dim int 1
LOOKUP_TABLE default
2 2 2 0 0 0 2 2 2 0 2 0 0 0 2 0 0 0 0 2 2 0 0 0 0 2 0 2 2 0 0 0 2 0 2 0 2 2 2 0 0 2 0 0 2 0 

SCALARS geom_link_id int 1
LOOKUP_TABLE default
34 2 10 0 0 0 17 17 27 0 30 0 0 0 28 0 0 0 0 22 35 0 0 0 0 29 0 7 20 0 0 0 32 0 11 0 19 25 16 0 0 26 0 0 18 0 

