# vtk DataFile Version 3.0
Generated by GMDS VTK Writer

ASCII
DATASET UNSTRUCTURED_GRID
POINTS 26 float
-5 0 0
-5 10 0
10 0 0
0 5 5
-4.44089209850063e-16 0 0
0 10 0
-5 0 5
10 0 5
-5 10 5
5 0 0
5 10 0
5 10 5
5 0 5
0 5 0
5 0 10
-5 5 0
-5 5 5
5 5 5
5 5 0
10 5 5
10 5 0
5 5 10
0 10 5
0 0 5
0 0 10
0 5 10

CELLS 49 147
2 6 16
2 4 23
2 12 17
2 6 23
2 0 15
2 4 9
2 15 1
2 9 2
2 0 6
2 2 7
2 13 3
2 0 4
2 1 8
2 8 22
2 17 11
2 23 3
2 16 8
2 24 14
2 12 7
2 10 11
2 4 13
2 9 12
2 15 13
2 5 22
2 22 11
2 3 17
2 23 12
2 14 12
2 9 18
2 18 10
2 15 16
2 18 17
2 7 19
2 2 20
2 19 17
2 20 19
2 20 18
2 16 3
2 14 21
2 13 18
2 17 21
2 1 5
2 5 13
2 22 3
2 5 10
2 25 21
2 24 23
2 3 25
2 24 25

CELL_TYPES 49
3 
3 
3 
3 
3 
3 
3 
3 
3 
3 
3 
3 
3 
3 
3 
3 
3 
3 
3 
3 
3 
3 
3 
3 
3 
3 
3 
3 
3 
3 
3 
3 
3 
3 
3 
3 
3 
3 
3 
3 
3 
3 
3 
3 
3 
3 
3 
3 
3 
POINT_DATA 26
SCALARS GMDS_ID int 1
LOOKUP_TABLE default
0 1 3 5 6 7 8 9 11 12 13 14 15 16 17 18 19 20 21 22 23 25 26 27 28 29 
SCALARS geom_link_dim int 1
LOOKUP_TABLE default
1 0 1 1 2 1 1 1 0 2 1 1 1 1 1 1 1 1 1 1 1 1 1 1 1 1 
SCALARS geom_link_id int 1
LOOKUP_TABLE default
5 -1 6 4 17 17 7 10 -1 17 16 22 9 18 8 19 13 12 15 20 14 11 21 1 2 3 


CELL_DATA 49
SCALARS GMDS_ID int 1
LOOKUP_TABLE default
1 2 3 4 5 6 7 11 12 14 15 17 18 19 20 21 22 23 27 29 30 31 32 33 35 36 37 38 39 40 41 43 45 47 49 50 51 53 54 55 57 59 60 61 62 63 64 65 66 

SCALARS geom_link_dim int 1
LOOKUP_TABLE default
2 0 2 2 2 2 0 2 2 2 0 2 0 0 2 2 0 2 2 2 0 0 2 2 2 2 0 2 0 2 2 2 2 2 2 2 2 2 2 0 2 0 2 2 2 2 2 2 2 

SCALARS geom_link_id int 1
LOOKUP_TABLE default
34 0 2 6 10 17 0 17 27 30 0 17 0 0 28 5 0 31 22 35 0 0 23 36 21 4 0 29 0 7 20 3 32 11 19 25 16 9 26 0 18 0 12 24 13 33 8 14 15 

