# vtk DataFile Version 3.0
Generated by GMDS VTK Writer

ASCII
DATASET UNSTRUCTURED_GRID
POINTS 28 float
-5 0 0
-5 10 0
10 10 0
10 0 0
-5 5 5
-5 5 0
-5 0 5
10 0 5
10 10 5
-5 10 5
5 0 0
5 10 0
5 10 5
5 0 5
5 0 10
-4.44089209850063e-16 0 0
0 10 0
0 10 5
0 0 5
0 0 10
0 5 5
0 5 0
5 5 0
5 5 5
10 5 5
10 5 0
0 5 10
5 5 10

CELLS 54 162
2 1 16
2 9 17
2 0 15
2 6 4
2 15 10
2 11 2
2 21 16
2 4 20
2 10 3
2 0 6
2 3 7
2 0 5
2 2 8
2 18 20
2 1 9
2 17 12
2 16 11
2 5 4
2 12 8
2 21 20
2 13 7
2 11 12
2 10 13
2 20 17
2 4 9
2 15 21
2 5 1
2 14 13
2 6 18
2 18 13
2 16 17
2 15 18
2 19 14
2 19 18
2 5 21
2 10 22
2 22 11
2 13 23
2 23 12
2 7 24
2 24 8
2 3 25
2 25 2
2 22 23
2 24 23
2 25 24
2 25 22
2 23 20
2 22 21
2 19 26
2 20 26
2 14 27
2 23 27
2 27 26

CELL_TYPES 54
3 
3 
3 
3 
3 
3 
3 
3 
3 
3 
3 
3 
3 
3 
3 
3 
3 
3 
3 
3 
3 
3 
3 
3 
3 
3 
3 
3 
3 
3 
3 
3 
3 
3 
3 
3 
3 
3 
3 
3 
3 
3 
3 
3 
3 
3 
3 
3 
3 
3 
3 
3 
3 
3 
POINT_DATA 28
SCALARS GMDS_ID int 1
LOOKUP_TABLE default
0 1 2 3 6 7 8 9 10 11 12 13 14 15 17 18 19 20 21 23 24 25 26 27 28 29 31 32 
SCALARS geom_link_dim_0 int 1
LOOKUP_TABLE default
0 0 0 0 0 0 0 0 0 0 0 0 0 0 0 0 0 0 0 0 0 0 0 0 0 0 0 0 
SCALARS geom_link_id_0 int 1
LOOKUP_TABLE default
0 0 0 0 0 0 0 0 0 0 0 0 0 0 0 0 0 0 0 0 0 0 0 0 0 0 0 0 


CELL_DATA 54
SCALARS GMDS_ID int 1
LOOKUP_TABLE default
1 3 5 6 7 8 9 10 11 12 14 15 16 17 18 20 22 24 25 26 27 29 31 32 33 34 35 38 39 40 42 44 48 51 52 53 54 55 56 57 58 59 60 61 62 63 64 65 66 69 72 74 76 77 

SCALARS geom_link_dim_0 int 1
LOOKUP_TABLE default
0 0 0 0 0 0 0 0 0 0 0 0 0 0 0 0 0 0 0 0 0 0 0 0 0 0 0 0 0 0 0 0 0 0 0 0 0 0 0 0 0 0 0 0 0 0 0 0 0 0 0 0 0 0 

SCALARS geom_link_id_0 int 1
LOOKUP_TABLE default
0 0 0 0 0 0 0 0 0 0 0 0 0 0 0 0 0 0 0 0 0 0 0 0 0 0 0 0 0 0 0 0 0 0 0 0 0 0 0 0 0 0 0 0 0 0 0 0 0 0 0 0 0 0 

