# vtk DataFile Version 3.0
Generated by GMDS VTK Writer

ASCII
DATASET UNSTRUCTURED_GRID
POINTS 20 float
-5 0 0
-5 10 0
10 10 0
10 0 0
0 10 0
-4.44089209850063e-16 0 0
-5 0 5
10 0 5
10 10 5
-5 10 5
5 0 0
5 10 0
5 10 5
5 0 5
5 10 10
5 0 10
0 10 5
0 0 5
-4.44089209850063e-16 10 10
0 0 10

CELLS 36 108
2 0 1
2 2 3
2 1 4
2 11 2
2 10 3
2 0 6
2 3 7
2 5 10
2 2 8
2 0 5
2 1 9
2 8 7
2 6 9
2 12 8
2 13 7
2 10 11
2 11 12
2 13 12
2 10 13
2 9 16
2 4 11
2 14 12
2 15 14
2 15 13
2 16 12
2 6 17
2 17 13
2 5 4
2 4 16
2 17 16
2 5 17
2 18 14
2 19 15
2 18 16
2 19 18
2 19 17

CELL_TYPES 36
3 
3 
3 
3 
3 
3 
3 
3 
3 
3 
3 
3 
3 
3 
3 
3 
3 
3 
3 
3 
3 
3 
3 
3 
3 
3 
3 
3 
3 
3 
3 
3 
3 
3 
3 
3 
POINT_DATA 20
SCALARS GMDS_ID int 1
LOOKUP_TABLE default
0 1 2 3 6 7 8 9 10 11 12 13 14 15 16 17 18 19 20 21 
SCALARS geom_link_dim int 1
LOOKUP_TABLE default
1 0 0 1 1 2 1 1 0 0 2 1 1 1 0 1 1 1 0 1 
SCALARS geom_link_id int 1
LOOKUP_TABLE default
5 -1 -1 6 17 17 7 10 -1 -1 17 16 22 9 -1 8 21 1 -1 2 


CELL_DATA 36
SCALARS GMDS_ID int 1
LOOKUP_TABLE default
0 1 3 4 5 6 8 9 10 11 12 14 15 16 17 18 19 20 21 22 23 24 25 26 27 28 29 30 31 32 33 35 37 38 39 40 

SCALARS geom_link_dim int 1
LOOKUP_TABLE default
0 0 0 0 2 2 2 2 0 2 0 0 0 0 2 0 2 0 0 0 2 0 0 2 2 2 0 0 2 0 0 0 2 0 0 2 

SCALARS geom_link_id int 1
LOOKUP_TABLE default
0 0 0 0 17 27 30 17 0 17 0 0 0 0 22 0 35 0 0 0 13 0 0 29 21 6 0 0 36 0 0 0 31 0 0 8 

