# vtk DataFile Version 3.0
Generated by GMDS VTK Writer

ASCII
DATASET UNSTRUCTURED_GRID
POINTS 24 float
-5 0 0
10 0 0
0 10 0
8.88178419700125e-16 0 0
0 0 10
10 5 0
0 5 10
0 5 0
-5 5 0
5 5 0
5 5 10
5 10 0
5 0 0
5 0 10
10 5 5
5 5 5
5 10 5
-5 0 5
0 0 5
0 5 5
-5 5 5
0 10 5
10 0 5
5 0 5

CELLS 44 132
2 5 9
2 10 6
2 1 5
2 9 7
2 9 15
2 3 0
2 15 10
2 4 6
2 3 7
2 7 2
2 5 14
2 0 8
2 8 7
2 11 2
2 11 9
2 1 12
2 12 3
2 13 4
2 13 10
2 12 9
2 11 16
2 14 15
2 15 16
2 0 17
2 3 18
2 18 4
2 7 19
2 19 6
2 8 20
2 17 18
2 18 19
2 19 20
2 17 20
2 2 21
2 21 19
2 19 15
2 21 16
2 1 22
2 12 23
2 23 13
2 22 14
2 15 23
2 22 23
2 18 23

CELL_TYPES 44
3 
3 
3 
3 
3 
3 
3 
3 
3 
3 
3 
3 
3 
3 
3 
3 
3 
3 
3 
3 
3 
3 
3 
3 
3 
3 
3 
3 
3 
3 
3 
3 
3 
3 
3 
3 
3 
3 
3 
3 
3 
3 
3 
3 
POINT_DATA 24
SCALARS GMDS_ID int 1
LOOKUP_TABLE default
0 3 8 9 10 12 14 15 17 18 19 21 22 23 25 26 27 28 29 30 31 32 34 35 
SCALARS geom_link_dim_0 int 1
LOOKUP_TABLE default
0 0 0 0 0 0 0 0 0 0 0 0 0 0 0 0 0 0 0 0 0 0 0 0 
SCALARS geom_link_id_0 int 1
LOOKUP_TABLE default
0 0 0 0 0 0 0 0 0 0 0 0 0 0 0 0 0 0 0 0 0 0 0 0 


CELL_DATA 44
SCALARS GMDS_ID int 1
LOOKUP_TABLE default
2 4 5 6 14 15 16 24 26 27 31 34 38 40 44 45 46 48 50 51 52 55 56 58 60 61 62 63 64 66 67 68 69 70 74 77 78 79 81 82 83 84 85 86 

SCALARS geom_link_dim_0 int 1
LOOKUP_TABLE default
0 0 0 0 0 0 0 0 0 0 0 0 0 0 0 0 0 0 0 0 0 0 0 0 0 0 0 0 0 0 0 0 0 0 0 0 0 0 0 0 0 0 0 0 

SCALARS geom_link_id_0 int 1
LOOKUP_TABLE default
0 0 0 0 0 0 0 0 0 0 0 0 0 0 0 0 0 0 0 0 0 0 0 0 0 0 0 0 0 0 0 0 0 0 0 0 0 0 0 0 0 0 0 0 

