# vtk DataFile Version 3.0
Generated by GMDS VTK Writer

ASCII
DATASET UNSTRUCTURED_GRID
POINTS 30 float
-5 0 0
-5 10 0
10 10 0
10 0 0
-5 0 10
-5 5 5
-5 5 0
-5 0 5
10 0 5
10 10 5
-5 10 5
5 0 0
5 10 0
5 10 5
5 0 5
5 0 10
-4.44089209850063e-16 0 0
0 10 0
0 10 5
0 0 5
0 0 10
0 5 5
0 5 0
5 5 0
5 5 5
10 5 5
10 5 0
-5 5 10
0 5 10
5 5 10

CELLS 59 177
2 1 17
2 10 18
2 0 16
2 7 5
2 16 11
2 12 2
2 22 17
2 5 21
2 11 3
2 0 7
2 7 4
2 3 8
2 0 6
2 2 9
2 19 21
2 1 10
2 18 13
2 17 12
2 6 5
2 13 9
2 22 21
2 14 8
2 12 13
2 11 14
2 21 18
2 5 10
2 16 22
2 6 1
2 15 14
2 7 19
2 19 14
2 17 18
2 16 19
2 4 20
2 20 15
2 20 19
2 6 22
2 11 23
2 23 12
2 14 24
2 24 13
2 8 25
2 25 9
2 3 26
2 26 2
2 23 24
2 25 24
2 26 25
2 26 23
2 24 21
2 23 22
2 4 27
2 20 28
2 27 5
2 21 28
2 27 28
2 15 29
2 24 29
2 29 28

CELL_TYPES 59
3 
3 
3 
3 
3 
3 
3 
3 
3 
3 
3 
3 
3 
3 
3 
3 
3 
3 
3 
3 
3 
3 
3 
3 
3 
3 
3 
3 
3 
3 
3 
3 
3 
3 
3 
3 
3 
3 
3 
3 
3 
3 
3 
3 
3 
3 
3 
3 
3 
3 
3 
3 
3 
3 
3 
3 
3 
3 
3 
POINT_DATA 30
SCALARS GMDS_ID int 1
LOOKUP_TABLE default
0 1 2 3 4 6 7 8 9 10 11 12 13 14 15 17 18 19 20 21 23 24 25 26 27 28 29 30 31 32 
SCALARS geom_link_dim_0 int 1
LOOKUP_TABLE default
0 0 0 0 0 0 0 0 0 0 0 0 0 0 0 0 0 0 0 0 0 0 0 0 0 0 0 0 0 0 
SCALARS geom_link_id_0 int 1
LOOKUP_TABLE default
0 0 0 0 0 0 0 0 0 0 0 0 0 0 0 0 0 0 0 0 0 0 0 0 0 0 0 0 0 0 


CELL_DATA 59
SCALARS GMDS_ID int 1
LOOKUP_TABLE default
1 3 5 6 7 8 9 10 11 12 13 14 15 16 17 18 20 22 24 25 26 27 29 31 32 33 34 35 38 39 40 42 44 47 48 51 52 53 54 55 56 57 58 59 60 61 62 63 64 65 66 67 69 71 72 73 74 76 77 

SCALARS geom_link_dim_0 int 1
LOOKUP_TABLE default
0 0 0 0 0 0 0 0 0 0 0 0 0 0 0 0 0 0 0 0 0 0 0 0 0 0 0 0 0 0 0 0 0 0 0 0 0 0 0 0 0 0 0 0 0 0 0 0 0 0 0 0 0 0 0 0 0 0 0 

SCALARS geom_link_id_0 int 1
LOOKUP_TABLE default
0 0 0 0 0 0 0 0 0 0 0 0 0 0 0 0 0 0 0 0 0 0 0 0 0 0 0 0 0 0 0 0 0 0 0 0 0 0 0 0 0 0 0 0 0 0 0 0 0 0 0 0 0 0 0 0 0 0 0 

