# vtk DataFile Version 3.0
Generated by GMDS VTK Writer

ASCII
DATASET UNSTRUCTURED_GRID
POINTS 33 float
-5 0 0
10 10 0
10 0 0
-5 0 10
10 10 10
10 0 10
-5 0 5
10 0 5
10 10 5
-8.88178419700125e-16 0 0
0 10 0
0 10 5
0 0 5
-8.88178419700125e-16 10 10
0 0 10
5 0 0
5 10 0
5 10 5
5 0 5
5 10 10
5 0 10
0 5 0
0 5 5
5 5 5
5 5 0
-5 5 0
-5 5 5
-5 5 10
0 5 10
10 5 5
10 5 0
5 5 10
10 5 10

CELLS 67 201
2 10 16
2 11 17
2 9 15
2 15 2
2 12 22
2 0 9
2 18 23
2 0 6
2 6 3
2 2 7
2 7 5
2 1 8
2 8 4
2 17 8
2 16 1
2 22 11
2 6 12
2 23 17
2 10 11
2 9 12
2 9 21
2 3 14
2 21 10
2 13 11
2 14 12
2 12 18
2 18 7
2 16 17
2 15 18
2 13 19
2 19 4
2 14 20
2 20 5
2 17 19
2 18 20
2 15 24
2 24 16
2 21 22
2 22 23
2 24 23
2 21 24
2 0 25
2 6 26
2 25 26
2 26 22
2 25 21
2 3 27
2 14 28
2 28 13
2 27 26
2 22 28
2 27 28
2 7 29
2 29 8
2 2 30
2 30 1
2 29 23
2 30 29
2 30 24
2 20 31
2 31 19
2 28 31
2 23 31
2 5 32
2 32 4
2 32 31
2 32 29

CELL_TYPES 67
3 
3 
3 
3 
3 
3 
3 
3 
3 
3 
3 
3 
3 
3 
3 
3 
3 
3 
3 
3 
3 
3 
3 
3 
3 
3 
3 
3 
3 
3 
3 
3 
3 
3 
3 
3 
3 
3 
3 
3 
3 
3 
3 
3 
3 
3 
3 
3 
3 
3 
3 
3 
3 
3 
3 
3 
3 
3 
3 
3 
3 
3 
3 
3 
3 
3 
3 
POINT_DATA 33
SCALARS GMDS_ID int 1
LOOKUP_TABLE default
0 2 3 4 6 7 8 9 10 12 13 14 15 16 17 18 19 20 21 22 23 24 25 26 27 28 29 30 31 32 33 34 35 
SCALARS geom_link_dim_0 int 1
LOOKUP_TABLE default
0 0 0 0 0 0 0 0 0 0 0 0 0 0 0 0 0 0 0 0 0 0 0 0 0 0 0 0 0 0 0 0 0 
SCALARS geom_link_id_0 int 1
LOOKUP_TABLE default
0 0 0 0 0 0 0 0 0 0 0 0 0 0 0 0 0 0 0 0 0 0 0 0 0 0 0 0 0 0 0 0 0 


CELL_DATA 67
SCALARS GMDS_ID int 1
LOOKUP_TABLE default
1 3 5 7 8 10 11 12 13 14 15 16 17 20 22 25 26 27 29 31 33 34 35 36 38 39 40 42 44 45 46 47 48 49 51 52 53 54 55 56 57 58 60 62 63 64 65 67 68 69 70 71 72 73 74 75 76 77 78 79 80 81 82 83 84 85 86 

SCALARS geom_link_dim_0 int 1
LOOKUP_TABLE default
0 0 0 0 0 0 0 0 0 0 0 0 0 0 0 0 0 0 0 0 0 0 0 0 0 0 0 0 0 0 0 0 0 0 0 0 0 0 0 0 0 0 0 0 0 0 0 0 0 0 0 0 0 0 0 0 0 0 0 0 0 0 0 0 0 0 0 

SCALARS geom_link_id_0 int 1
LOOKUP_TABLE default
0 0 0 0 0 0 0 0 0 0 0 0 0 0 0 0 0 0 0 0 0 0 0 0 0 0 0 0 0 0 0 0 0 0 0 0 0 0 0 0 0 0 0 0 0 0 0 0 0 0 0 0 0 0 0 0 0 0 0 0 0 0 0 0 0 0 0 

