# vtk DataFile Version 3.0
Generated by GMDS VTK Writer

ASCII
DATASET UNSTRUCTURED_GRID
POINTS 25 float
-5 0 0
-5 10 0
10 10 0
10 0 0
-5 10 10
10 0 10
-5 0 5
10 0 5
10 10 5
-5 10 5
-5 5 0
10 5 0
10 5 5
-5 5 5
10 5 10
-5 5 10
-8.88178419700125e-16 0 0
0 0 5
0 5 5
0 5 0
0 10 5
0 10 0
0 0 10
0 5 10
-8.88178419700125e-16 10 10

CELLS 48 144
2 18 12
2 13 18
2 0 16
2 16 3
2 11 2
2 3 11
2 0 10
2 10 1
2 0 6
2 3 7
2 7 5
2 2 8
2 1 9
2 9 4
2 6 17
2 17 7
2 7 12
2 12 8
2 6 13
2 13 9
2 11 12
2 10 13
2 5 14
2 15 4
2 14 12
2 15 13
2 10 19
2 19 11
2 16 17
2 17 18
2 19 18
2 16 19
2 9 20
2 20 8
2 1 21
2 21 2
2 20 18
2 21 20
2 21 19
2 22 5
2 15 23
2 23 14
2 22 17
2 18 23
2 22 23
2 4 24
2 24 20
2 24 23

CELL_TYPES 48
3 
3 
3 
3 
3 
3 
3 
3 
3 
3 
3 
3 
3 
3 
3 
3 
3 
3 
3 
3 
3 
3 
3 
3 
3 
3 
3 
3 
3 
3 
3 
3 
3 
3 
3 
3 
3 
3 
3 
3 
3 
3 
3 
3 
3 
3 
3 
3 
POINT_DATA 25
SCALARS GMDS_ID int 1
LOOKUP_TABLE default
0 1 2 3 5 7 8 9 10 11 12 13 14 15 16 17 18 19 20 21 22 23 24 25 26 
SCALARS geom_link_dim int 1
LOOKUP_TABLE default
1 0 0 1 0 0 1 1 0 0 1 1 1 1 0 0 2 1 1 1 1 1 1 1 0 
SCALARS geom_link_id int 1
LOOKUP_TABLE default
5 -1 -1 6 -1 -1 7 10 -1 -1 19 14 20 13 -1 -1 17 1 4 18 21 17 2 3 -1 


CELL_DATA 48
SCALARS GMDS_ID int 1
LOOKUP_TABLE default
0 2 4 6 8 9 10 11 12 14 15 16 18 19 21 23 24 25 26 27 29 31 32 35 36 38 39 40 41 42 43 44 45 46 47 48 49 50 51 53 54 55 56 57 58 59 61 62 

SCALARS geom_link_dim int 1
LOOKUP_TABLE default
0 2 2 2 0 2 2 0 2 2 0 0 0 0 2 0 2 0 2 0 2 2 0 0 0 0 2 0 0 2 0 0 0 0 0 0 2 2 2 0 0 0 2 2 2 0 0 0 

SCALARS geom_link_id int 1
LOOKUP_TABLE default
0 9 17 17 0 11 10 0 27 30 0 0 0 0 6 0 32 0 34 0 25 20 0 0 0 0 23 0 0 5 0 0 0 0 0 0 24 36 12 0 0 0 8 14 15 0 0 0 

