# vtk DataFile Version 3.0
Generated by GMDS VTK Writer

ASCII
DATASET UNSTRUCTURED_GRID
POINTS 32 float
-5 0 0
-5 10 0
10 10 0
10 0 0
-5 0 10
-5 10 10
-5 5 5
-5 5 0
-5 0 5
10 0 5
10 10 5
-5 10 5
5 0 0
5 10 0
5 10 5
5 0 5
5 0 10
-4.44089209850063e-16 0 0
0 10 0
0 10 5
0 0 5
-4.44089209850063e-16 10 10
0 0 10
0 5 5
0 5 0
5 5 0
5 5 5
10 5 5
10 5 0
-5 5 10
0 5 10
5 5 10

CELLS 64 192
2 1 18
2 11 19
2 0 17
2 8 6
2 17 12
2 13 2
2 24 18
2 6 23
2 12 3
2 0 8
2 8 4
2 3 9
2 0 7
2 2 10
2 20 23
2 1 11
2 11 5
2 19 14
2 18 13
2 7 6
2 14 10
2 24 23
2 15 9
2 13 14
2 12 15
2 23 19
2 6 11
2 17 24
2 7 1
2 16 15
2 8 20
2 20 15
2 18 19
2 17 20
2 5 21
2 4 22
2 22 16
2 21 19
2 22 20
2 7 24
2 12 25
2 25 13
2 15 26
2 26 14
2 9 27
2 27 10
2 3 28
2 28 2
2 25 26
2 27 26
2 28 27
2 28 25
2 26 23
2 25 24
2 4 29
2 29 5
2 22 30
2 30 21
2 29 6
2 23 30
2 29 30
2 16 31
2 26 31
2 31 30

CELL_TYPES 64
3 
3 
3 
3 
3 
3 
3 
3 
3 
3 
3 
3 
3 
3 
3 
3 
3 
3 
3 
3 
3 
3 
3 
3 
3 
3 
3 
3 
3 
3 
3 
3 
3 
3 
3 
3 
3 
3 
3 
3 
3 
3 
3 
3 
3 
3 
3 
3 
3 
3 
3 
3 
3 
3 
3 
3 
3 
3 
3 
3 
3 
3 
3 
3 
POINT_DATA 32
SCALARS GMDS_ID int 1
LOOKUP_TABLE default
0 1 2 3 4 5 6 7 8 9 10 11 12 13 14 15 17 18 19 20 21 22 23 24 25 26 27 28 29 30 31 32 
SCALARS geom_link_dim_0 int 1
LOOKUP_TABLE default
0 0 0 0 0 0 0 0 0 0 0 0 0 0 0 0 0 0 0 0 0 0 0 0 0 0 0 0 0 0 0 0 
SCALARS geom_link_id_0 int 1
LOOKUP_TABLE default
0 0 0 0 0 0 0 0 0 0 0 0 0 0 0 0 0 0 0 0 0 0 0 0 0 0 0 0 0 0 0 0 


CELL_DATA 64
SCALARS GMDS_ID int 1
LOOKUP_TABLE default
1 3 5 6 7 8 9 10 11 12 13 14 15 16 17 18 19 20 22 24 25 26 27 29 31 32 33 34 35 38 39 40 42 44 45 47 48 49 51 52 53 54 55 56 57 58 59 60 61 62 63 64 65 66 67 68 69 70 71 72 73 74 76 77 

SCALARS geom_link_dim_0 int 1
LOOKUP_TABLE default
0 0 0 0 0 0 0 0 0 0 0 0 0 0 0 0 0 0 0 0 0 0 0 0 0 0 0 0 0 0 0 0 0 0 0 0 0 0 0 0 0 0 0 0 0 0 0 0 0 0 0 0 0 0 0 0 0 0 0 0 0 0 0 0 

SCALARS geom_link_id_0 int 1
LOOKUP_TABLE default
0 0 0 0 0 0 0 0 0 0 0 0 0 0 0 0 0 0 0 0 0 0 0 0 0 0 0 0 0 0 0 0 0 0 0 0 0 0 0 0 0 0 0 0 0 0 0 0 0 0 0 0 0 0 0 0 0 0 0 0 0 0 0 0 

