# vtk DataFile Version 3.0
Generated by GMDS VTK Writer

ASCII
DATASET UNSTRUCTURED_GRID
POINTS 26 float
-5 0 0
-5 10 0
10 10 0
10 0 0
-5 0 10
-5 10 10
10 0 10
-5 0 5
10 0 5
10 10 5
-5 10 5
-5 5 0
10 5 0
10 5 5
-5 5 5
10 5 10
-5 5 10
-8.88178419700125e-16 0 0
0 0 5
0 5 5
0 5 0
0 10 5
0 10 0
0 0 10
0 5 10
-8.88178419700125e-16 10 10

CELLS 51 153
2 19 13
2 14 19
2 0 17
2 17 3
2 12 2
2 3 12
2 0 11
2 11 1
2 0 7
2 7 4
2 3 8
2 8 6
2 2 9
2 1 10
2 10 5
2 7 18
2 18 8
2 8 13
2 13 9
2 7 14
2 14 10
2 12 13
2 11 14
2 6 15
2 4 16
2 16 5
2 15 13
2 16 14
2 11 20
2 20 12
2 17 18
2 18 19
2 20 19
2 17 20
2 10 21
2 21 9
2 1 22
2 22 2
2 21 19
2 22 21
2 22 20
2 4 23
2 23 6
2 16 24
2 24 15
2 23 18
2 19 24
2 23 24
2 5 25
2 25 21
2 25 24

CELL_TYPES 51
3 
3 
3 
3 
3 
3 
3 
3 
3 
3 
3 
3 
3 
3 
3 
3 
3 
3 
3 
3 
3 
3 
3 
3 
3 
3 
3 
3 
3 
3 
3 
3 
3 
3 
3 
3 
3 
3 
3 
3 
3 
3 
3 
3 
3 
3 
3 
3 
3 
3 
3 
POINT_DATA 26
SCALARS GMDS_ID int 1
LOOKUP_TABLE default
0 1 2 3 4 5 7 8 9 10 11 12 13 14 15 16 17 18 19 20 21 22 23 24 25 26 
SCALARS geom_link_dim int 1
LOOKUP_TABLE default
1 0 0 1 0 0 0 1 1 0 0 1 1 1 1 0 0 2 1 1 1 1 1 1 1 0 
SCALARS geom_link_id int 1
LOOKUP_TABLE default
5 -1 -1 6 -1 -1 -1 7 10 -1 -1 19 14 20 13 -1 -1 17 1 4 18 21 17 2 3 -1 


CELL_DATA 51
SCALARS GMDS_ID int 1
LOOKUP_TABLE default
0 2 4 6 8 9 10 11 12 13 14 15 16 18 19 21 23 24 25 26 27 29 31 32 34 35 36 38 39 40 41 42 43 44 45 46 47 48 49 50 51 52 53 54 55 56 57 58 59 61 62 

SCALARS geom_link_dim int 1
LOOKUP_TABLE default
0 0 2 2 0 2 2 0 2 0 2 0 0 0 0 2 0 2 0 2 0 2 2 0 0 0 0 0 2 0 0 0 0 0 0 0 0 0 2 2 2 0 0 0 0 2 2 2 0 0 0 

SCALARS geom_link_id int 1
LOOKUP_TABLE default
0 0 17 17 0 11 10 0 27 0 30 0 0 0 0 6 0 32 0 34 0 25 20 0 0 0 0 0 23 0 0 0 0 0 0 0 0 0 24 36 12 0 0 0 0 8 14 15 0 0 0 

