# vtk DataFile Version 3.0
Generated by GMDS VTK Writer

ASCII
DATASET UNSTRUCTURED_GRID
POINTS 24 float
-5 0 0
-5 10 0
10 10 0
10 0 0
-5 0 10
-5 10 10
10 10 10
10 0 10
5 10 0
5 0 0
5 0 10
5 10 10
0 10 0
8.88178419700125e-16 0 0
0 0 10
8.88178419700125e-16 10 10
0 10 5
0 0 5
-5 0 5
-5 10 5
5 10 5
5 0 5
10 10 5
10 0 5

CELLS 46 138
2 0 1
2 9 13
2 2 3
2 13 0
2 4 5
2 8 12
2 6 7
2 12 1
2 2 8
2 12 16
2 3 9
2 13 17
2 7 10
2 17 14
2 6 11
2 16 15
2 8 9
2 11 10
2 10 14
2 14 4
2 11 15
2 15 5
2 12 13
2 14 15
2 0 18
2 18 4
2 1 19
2 19 5
2 16 17
2 18 17
2 18 19
2 19 16
2 8 20
2 20 11
2 9 21
2 21 10
2 20 21
2 21 17
2 20 16
2 2 22
2 22 6
2 3 23
2 23 7
2 22 23
2 23 21
2 22 20

CELL_TYPES 46
3 
3 
3 
3 
3 
3 
3 
3 
3 
3 
3 
3 
3 
3 
3 
3 
3 
3 
3 
3 
3 
3 
3 
3 
3 
3 
3 
3 
3 
3 
3 
3 
3 
3 
3 
3 
3 
3 
3 
3 
3 
3 
3 
3 
3 
3 
POINT_DATA 24
SCALARS GMDS_ID int 1
LOOKUP_TABLE default
0 1 2 3 4 5 6 7 8 9 10 11 12 13 14 15 16 17 18 19 20 21 22 23 
SCALARS geom_link_dim int 1
LOOKUP_TABLE default
1 0 0 1 0 0 0 0 1 2 1 0 1 2 1 0 1 1 1 0 1 1 0 1 
SCALARS geom_link_id int 1
LOOKUP_TABLE default
5 -1 -1 6 -1 -1 -1 -1 16 17 8 -1 17 17 2 -1 21 1 7 -1 22 9 -1 10 


CELL_DATA 46
SCALARS GMDS_ID int 1
LOOKUP_TABLE default
0 1 2 3 4 5 6 7 12 13 14 15 16 17 18 19 20 22 24 25 26 27 28 30 32 33 34 35 36 37 38 39 40 41 42 43 44 45 46 47 48 49 50 51 52 53 

SCALARS geom_link_dim int 1
LOOKUP_TABLE default
0 2 0 2 0 2 0 0 0 2 2 0 0 2 0 0 0 0 2 0 0 0 0 0 2 0 0 0 0 2 0 0 2 0 0 2 0 0 2 0 0 2 0 0 2 0 

SCALARS geom_link_id int 1
LOOKUP_TABLE default
0 17 0 17 0 13 0 0 0 36 17 -1 0 8 0 -1 0 0 31 0 0 0 0 0 27 -1 -1 -1 -1 6 -1 -1 35 -1 -1 29 -1 -1 21 -1 -1 30 -1 -1 22 -1 

