# vtk DataFile Version 3.0
Generated by GMDS VTK Writer

ASCII
DATASET UNSTRUCTURED_GRID
POINTS 30 float
-5 0 0
10 10 0
10 0 0
10 0 10
-5 0 5
10 0 5
10 10 5
-8.88178419700125e-16 0 0
0 10 0
0 10 5
0 0 5
-8.88178419700125e-16 10 10
0 0 10
5 0 0
5 10 0
5 10 5
5 0 5
5 10 10
5 0 10
0 5 0
0 5 5
5 5 5
5 5 0
-5 5 0
-5 5 5
0 5 10
10 5 5
10 5 0
5 5 10
10 5 10

CELLS 59 177
2 8 14
2 9 15
2 7 13
2 13 2
2 10 20
2 0 7
2 16 21
2 0 4
2 2 5
2 5 3
2 1 6
2 15 6
2 14 1
2 20 9
2 4 10
2 21 15
2 8 9
2 7 10
2 7 19
2 19 8
2 11 9
2 12 10
2 10 16
2 16 5
2 14 15
2 13 16
2 11 17
2 12 18
2 18 3
2 15 17
2 16 18
2 13 22
2 22 14
2 19 20
2 20 21
2 22 21
2 19 22
2 0 23
2 4 24
2 23 24
2 24 20
2 23 19
2 12 25
2 25 11
2 20 25
2 5 26
2 26 6
2 2 27
2 27 1
2 26 21
2 27 26
2 27 22
2 18 28
2 28 17
2 25 28
2 21 28
2 3 29
2 29 28
2 29 26

CELL_TYPES 59
3 
3 
3 
3 
3 
3 
3 
3 
3 
3 
3 
3 
3 
3 
3 
3 
3 
3 
3 
3 
3 
3 
3 
3 
3 
3 
3 
3 
3 
3 
3 
3 
3 
3 
3 
3 
3 
3 
3 
3 
3 
3 
3 
3 
3 
3 
3 
3 
3 
3 
3 
3 
3 
3 
3 
3 
3 
3 
3 
POINT_DATA 30
SCALARS GMDS_ID int 1
LOOKUP_TABLE default
0 2 3 7 8 9 10 12 13 14 15 16 17 18 19 20 21 22 23 24 25 26 27 28 29 31 32 33 34 35 
SCALARS geom_link_dim_0 int 1
LOOKUP_TABLE default
0 0 0 0 0 0 0 0 0 0 0 0 0 0 0 0 0 0 0 0 0 0 0 0 0 0 0 0 0 0 
SCALARS geom_link_id_0 int 1
LOOKUP_TABLE default
0 0 0 0 0 0 0 0 0 0 0 0 0 0 0 0 0 0 0 0 0 0 0 0 0 0 0 0 0 0 


CELL_DATA 59
SCALARS GMDS_ID int 1
LOOKUP_TABLE default
1 3 5 7 8 10 11 12 14 15 16 20 22 25 26 27 29 31 33 35 36 38 39 40 42 44 45 47 48 49 51 52 53 54 55 56 57 58 60 62 63 64 67 68 70 72 73 74 75 76 77 78 79 80 81 82 83 85 86 

SCALARS geom_link_dim_0 int 1
LOOKUP_TABLE default
0 0 0 0 0 0 0 0 0 0 0 0 0 0 0 0 0 0 0 0 0 0 0 0 0 0 0 0 0 0 0 0 0 0 0 0 0 0 0 0 0 0 0 0 0 0 0 0 0 0 0 0 0 0 0 0 0 0 0 

SCALARS geom_link_id_0 int 1
LOOKUP_TABLE default
0 0 0 0 0 0 0 0 0 0 0 0 0 0 0 0 0 0 0 0 0 0 0 0 0 0 0 0 0 0 0 0 0 0 0 0 0 0 0 0 0 0 0 0 0 0 0 0 0 0 0 0 0 0 0 0 0 0 0 

