# vtk DataFile Version 3.0
Generated by GMDS VTK Writer

ASCII
DATASET UNSTRUCTURED_GRID
POINTS 34 float
-5 0 0
-5 10 0
10 0 0
-5 0 10
-5 10 10
10 10 10
0 10 0
8.88178419700125e-16 0 0
0 0 10
8.88178419700125e-16 10 10
10 5 0
10 5 10
0 5 10
0 5 0
-5 5 10
-5 5 0
5 5 0
5 5 10
5 10 10
5 10 0
5 0 0
5 0 10
10 10 5
10 5 5
5 5 5
5 10 5
-5 0 5
0 0 5
0 5 5
-5 5 5
0 10 5
-5 10 5
10 0 5
5 0 5

CELLS 69 207
2 18 9
2 10 16
2 11 5
2 17 12
2 2 10
2 16 13
2 22 5
2 6 1
2 16 24
2 7 0
2 24 17
2 8 3
2 9 4
2 5 18
2 11 17
2 8 12
2 12 9
2 7 13
2 13 6
2 23 11
2 10 23
2 3 14
2 14 4
2 0 15
2 15 1
2 14 12
2 15 13
2 19 6
2 18 17
2 19 16
2 2 20
2 20 7
2 21 8
2 21 17
2 20 16
2 19 25
2 25 18
2 22 23
2 23 24
2 24 25
2 22 25
2 0 26
2 26 3
2 7 27
2 27 8
2 13 28
2 28 12
2 15 29
2 29 14
2 26 27
2 27 28
2 28 29
2 26 29
2 6 30
2 30 9
2 1 31
2 31 4
2 30 28
2 31 30
2 31 29
2 28 24
2 30 25
2 2 32
2 20 33
2 33 21
2 32 23
2 24 33
2 32 33
2 27 33

CELL_TYPES 69
3 
3 
3 
3 
3 
3 
3 
3 
3 
3 
3 
3 
3 
3 
3 
3 
3 
3 
3 
3 
3 
3 
3 
3 
3 
3 
3 
3 
3 
3 
3 
3 
3 
3 
3 
3 
3 
3 
3 
3 
3 
3 
3 
3 
3 
3 
3 
3 
3 
3 
3 
3 
3 
3 
3 
3 
3 
3 
3 
3 
3 
3 
3 
3 
3 
3 
3 
3 
3 
POINT_DATA 34
SCALARS GMDS_ID int 1
LOOKUP_TABLE default
0 1 3 4 5 6 8 9 10 11 12 13 14 15 16 17 18 19 20 21 22 23 24 25 26 27 28 29 30 31 32 33 34 35 
SCALARS geom_link_dim_0 int 1
LOOKUP_TABLE default
0 0 0 0 0 0 0 0 0 0 0 0 0 0 0 0 0 0 0 0 0 0 0 0 0 0 0 0 0 0 0 0 0 0 
SCALARS geom_link_id_0 int 1
LOOKUP_TABLE default
0 0 0 0 0 0 0 0 0 0 0 0 0 0 0 0 0 0 0 0 0 0 0 0 0 0 0 0 0 0 0 0 0 0 


CELL_DATA 69
SCALARS GMDS_ID int 1
LOOKUP_TABLE default
0 2 3 4 5 6 12 13 14 15 16 17 19 20 22 24 25 26 27 29 31 32 33 34 35 36 38 40 42 44 45 46 48 50 51 52 53 54 55 56 57 58 59 60 61 62 63 64 65 66 67 68 69 70 71 72 73 74 75 76 77 78 79 81 82 83 84 85 86 

SCALARS geom_link_dim_0 int 1
LOOKUP_TABLE default
0 0 0 0 0 0 0 0 0 0 0 0 0 0 0 0 0 0 0 0 0 0 0 0 0 0 0 0 0 0 0 0 0 0 0 0 0 0 0 0 0 0 0 0 0 0 0 0 0 0 0 0 0 0 0 0 0 0 0 0 0 0 0 0 0 0 0 0 0 

SCALARS geom_link_id_0 int 1
LOOKUP_TABLE default
0 0 0 0 0 0 0 0 0 0 0 0 0 0 0 0 0 0 0 0 0 0 0 0 0 0 0 0 0 0 0 0 0 0 0 0 0 0 0 0 0 0 0 0 0 0 0 0 0 0 0 0 0 0 0 0 0 0 0 0 0 0 0 0 0 0 0 0 0 

