# vtk DataFile Version 3.0
Generated by GMDS VTK Writer

ASCII
DATASET UNSTRUCTURED_GRID
POINTS 24 float
-5 0 0
10 0 0
-5 5 5
-5 5 0
-5 0 5
10 0 5
5 0 0
5 10 0
5 10 5
5 0 5
5 0 10
-4.44089209850063e-16 0 0
0 10 0
0 10 5
0 0 5
0 0 10
0 5 5
0 5 0
5 5 0
5 5 5
10 5 5
10 5 0
0 5 10
5 5 10

CELLS 44 132
2 0 11
2 4 2
2 11 6
2 17 12
2 2 16
2 6 1
2 0 4
2 1 5
2 0 3
2 14 16
2 13 8
2 12 7
2 3 2
2 17 16
2 9 5
2 7 8
2 6 9
2 16 13
2 11 17
2 10 9
2 4 14
2 14 9
2 12 13
2 11 14
2 15 10
2 15 14
2 3 17
2 6 18
2 18 7
2 9 19
2 19 8
2 5 20
2 1 21
2 18 19
2 20 19
2 21 20
2 21 18
2 19 16
2 18 17
2 15 22
2 16 22
2 10 23
2 19 23
2 23 22

CELL_TYPES 44
3 
3 
3 
3 
3 
3 
3 
3 
3 
3 
3 
3 
3 
3 
3 
3 
3 
3 
3 
3 
3 
3 
3 
3 
3 
3 
3 
3 
3 
3 
3 
3 
3 
3 
3 
3 
3 
3 
3 
3 
3 
3 
3 
3 
POINT_DATA 24
SCALARS GMDS_ID int 1
LOOKUP_TABLE default
0 3 6 7 8 9 12 13 14 15 17 18 19 20 21 23 24 25 26 27 28 29 31 32 
SCALARS geom_link_dim_0 int 1
LOOKUP_TABLE default
0 0 0 0 0 0 0 0 0 0 0 0 0 0 0 0 0 0 0 0 0 0 0 0 
SCALARS geom_link_id_0 int 1
LOOKUP_TABLE default
0 0 0 0 0 0 0 0 0 0 0 0 0 0 0 0 0 0 0 0 0 0 0 0 


CELL_DATA 44
SCALARS GMDS_ID int 1
LOOKUP_TABLE default
5 6 7 9 10 11 12 14 15 17 20 22 24 26 27 29 31 32 34 38 39 40 42 44 48 51 52 53 54 55 56 57 59 61 62 63 64 65 66 69 72 74 76 77 

SCALARS geom_link_dim_0 int 1
LOOKUP_TABLE default
0 0 0 0 0 0 0 0 0 0 0 0 0 0 0 0 0 0 0 0 0 0 0 0 0 0 0 0 0 0 0 0 0 0 0 0 0 0 0 0 0 0 0 0 

SCALARS geom_link_id_0 int 1
LOOKUP_TABLE default
0 0 0 0 0 0 0 0 0 0 0 0 0 0 0 0 0 0 0 0 0 0 0 0 0 0 0 0 0 0 0 0 0 0 0 0 0 0 0 0 0 0 0 0 

