# vtk DataFile Version 3.0
Generated by GMDS VTK Writer

ASCII
DATASET UNSTRUCTURED_GRID
POINTS 24 float
-5 0 0
-5 10 0
10 10 0
10 0 0
-5 0 10
-5 10 10
10 10 10
10 0 10
5 10 0
5 0 0
5 0 10
5 10 10
10 10 5
10 0 5
5 0 5
5 10 5
-5 0 5
-5 10 5
8.88178419700125e-16 0 0
0 10 0
0 10 5
0 0 5
8.88178419700125e-16 10 10
0 0 10

CELLS 46 138
2 0 1
2 3 13
2 2 3
2 13 7
2 4 5
2 2 12
2 6 7
2 12 6
2 20 15
2 19 8
2 18 9
2 0 18
2 2 8
2 3 9
2 7 10
2 6 11
2 8 9
2 17 20
2 11 10
2 1 19
2 9 14
2 14 10
2 8 15
2 15 11
2 12 13
2 13 14
2 15 14
2 12 15
2 0 16
2 16 4
2 1 17
2 17 5
2 16 17
2 16 21
2 21 14
2 18 19
2 19 20
2 21 20
2 18 21
2 5 22
2 22 11
2 4 23
2 23 10
2 22 20
2 23 22
2 23 21

CELL_TYPES 46
3 
3 
3 
3 
3 
3 
3 
3 
3 
3 
3 
3 
3 
3 
3 
3 
3 
3 
3 
3 
3 
3 
3 
3 
3 
3 
3 
3 
3 
3 
3 
3 
3 
3 
3 
3 
3 
3 
3 
3 
3 
3 
3 
3 
3 
3 
POINT_DATA 24
SCALARS GMDS_ID int 1
LOOKUP_TABLE default
0 1 2 3 4 5 6 7 8 9 10 11 12 13 14 15 16 17 18 19 20 21 22 23 
SCALARS geom_link_dim int 1
LOOKUP_TABLE default
1 0 0 1 0 0 0 0 1 2 1 0 0 1 1 1 1 0 2 1 1 1 0 1 
SCALARS geom_link_id int 1
LOOKUP_TABLE default
5 -1 -1 6 -1 -1 -1 -1 16 17 8 -1 -1 10 9 22 7 -1 17 17 21 1 -1 2 


CELL_DATA 46
SCALARS GMDS_ID int 1
LOOKUP_TABLE default
0 1 2 3 4 5 6 7 8 9 10 11 12 14 16 18 20 21 22 23 24 25 26 27 28 29 30 31 32 33 34 35 37 39 40 41 42 43 44 45 46 47 48 49 50 51 

SCALARS geom_link_dim int 1
LOOKUP_TABLE default
0 2 0 0 0 0 0 0 2 2 2 2 0 2 0 0 0 0 0 0 0 2 2 0 0 2 0 0 2 0 0 0 0 2 0 0 2 0 0 0 0 0 2 0 0 2 

SCALARS geom_link_id int 1
LOOKUP_TABLE default
0 30 0 0 0 0 0 0 21 13 17 17 0 17 0 0 0 -1 0 -1 0 29 35 0 0 22 0 0 27 0 0 0 0 6 -1 -1 36 -1 -1 -1 -1 -1 31 -1 -1 8 

