# vtk DataFile Version 3.0
Generated by GMDS VTK Writer

ASCII
DATASET UNSTRUCTURED_GRID
POINTS 26 float
-5 0 0
-5 10 0
10 0 0
-5 5 5
-5 5 0
-5 0 5
10 0 5
-5 10 5
5 0 0
5 10 0
5 10 5
5 0 5
5 0 10
-4.44089209850063e-16 0 0
0 10 0
0 10 5
0 0 5
0 0 10
0 5 5
0 5 0
5 5 0
5 5 5
10 5 5
10 5 0
0 5 10
5 5 10

CELLS 49 147
2 1 14
2 7 15
2 0 13
2 5 3
2 13 8
2 19 14
2 3 18
2 8 2
2 0 5
2 2 6
2 0 4
2 16 18
2 1 7
2 15 10
2 14 9
2 4 3
2 19 18
2 11 6
2 9 10
2 8 11
2 18 15
2 3 7
2 13 19
2 4 1
2 12 11
2 5 16
2 16 11
2 14 15
2 13 16
2 17 12
2 17 16
2 4 19
2 8 20
2 20 9
2 11 21
2 21 10
2 6 22
2 2 23
2 20 21
2 22 21
2 23 22
2 23 20
2 21 18
2 20 19
2 17 24
2 18 24
2 12 25
2 21 25
2 25 24

CELL_TYPES 49
3 
3 
3 
3 
3 
3 
3 
3 
3 
3 
3 
3 
3 
3 
3 
3 
3 
3 
3 
3 
3 
3 
3 
3 
3 
3 
3 
3 
3 
3 
3 
3 
3 
3 
3 
3 
3 
3 
3 
3 
3 
3 
3 
3 
3 
3 
3 
3 
3 
POINT_DATA 26
SCALARS GMDS_ID int 1
LOOKUP_TABLE default
0 1 3 6 7 8 9 11 12 13 14 15 17 18 19 20 21 23 24 25 26 27 28 29 31 32 
SCALARS geom_link_dim_0 int 1
LOOKUP_TABLE default
0 0 0 0 0 0 0 0 0 0 0 0 0 0 0 0 0 0 0 0 0 0 0 0 0 0 
SCALARS geom_link_id_0 int 1
LOOKUP_TABLE default
0 0 0 0 0 0 0 0 0 0 0 0 0 0 0 0 0 0 0 0 0 0 0 0 0 0 


CELL_DATA 49
SCALARS GMDS_ID int 1
LOOKUP_TABLE default
1 3 5 6 7 9 10 11 12 14 15 17 18 20 22 24 26 27 29 31 32 33 34 35 38 39 40 42 44 48 51 52 53 54 55 56 57 59 61 62 63 64 65 66 69 72 74 76 77 

SCALARS geom_link_dim_0 int 1
LOOKUP_TABLE default
0 0 0 0 0 0 0 0 0 0 0 0 0 0 0 0 0 0 0 0 0 0 0 0 0 0 0 0 0 0 0 0 0 0 0 0 0 0 0 0 0 0 0 0 0 0 0 0 0 

SCALARS geom_link_id_0 int 1
LOOKUP_TABLE default
0 0 0 0 0 0 0 0 0 0 0 0 0 0 0 0 0 0 0 0 0 0 0 0 0 0 0 0 0 0 0 0 0 0 0 0 0 0 0 0 0 0 0 0 0 0 0 0 0 

