# vtk DataFile Version 3.0
Generated by GMDS VTK Writer

ASCII
DATASET UNSTRUCTURED_GRID
POINTS 33 float
-5 0 0
10 0 0
-5 0 10
-5 10 10
10 10 10
0 10 0
8.88178419700125e-16 0 0
0 0 10
8.88178419700125e-16 10 10
10 5 0
10 5 10
0 5 10
0 5 0
-5 5 10
-5 5 0
5 5 0
5 5 10
5 10 10
5 10 0
5 0 0
5 0 10
10 10 5
10 5 5
5 5 5
5 10 5
-5 0 5
0 0 5
0 5 5
-5 5 5
0 10 5
-5 10 5
10 0 5
5 0 5

CELLS 66 198
2 17 8
2 9 15
2 10 4
2 16 11
2 1 9
2 15 12
2 21 4
2 15 23
2 6 0
2 23 16
2 7 2
2 8 3
2 4 17
2 10 16
2 7 11
2 11 8
2 6 12
2 12 5
2 22 10
2 9 22
2 2 13
2 13 3
2 0 14
2 13 11
2 14 12
2 18 5
2 17 16
2 18 15
2 1 19
2 19 6
2 20 7
2 20 16
2 19 15
2 18 24
2 24 17
2 21 22
2 22 23
2 23 24
2 21 24
2 0 25
2 25 2
2 6 26
2 26 7
2 12 27
2 27 11
2 14 28
2 28 13
2 25 26
2 26 27
2 27 28
2 25 28
2 5 29
2 29 8
2 30 3
2 29 27
2 30 29
2 30 28
2 27 23
2 29 24
2 1 31
2 19 32
2 32 20
2 31 22
2 23 32
2 31 32
2 26 32

CELL_TYPES 66
3 
3 
3 
3 
3 
3 
3 
3 
3 
3 
3 
3 
3 
3 
3 
3 
3 
3 
3 
3 
3 
3 
3 
3 
3 
3 
3 
3 
3 
3 
3 
3 
3 
3 
3 
3 
3 
3 
3 
3 
3 
3 
3 
3 
3 
3 
3 
3 
3 
3 
3 
3 
3 
3 
3 
3 
3 
3 
3 
3 
3 
3 
3 
3 
3 
3 
POINT_DATA 33
SCALARS GMDS_ID int 1
LOOKUP_TABLE default
0 3 4 5 6 8 9 10 11 12 13 14 15 16 17 18 19 20 21 22 23 24 25 26 27 28 29 30 31 32 33 34 35 
SCALARS geom_link_dim_0 int 1
LOOKUP_TABLE default
0 0 0 0 0 0 0 0 0 0 0 0 0 0 0 0 0 0 0 0 0 0 0 0 0 0 0 0 0 0 0 0 0 
SCALARS geom_link_id_0 int 1
LOOKUP_TABLE default
0 0 0 0 0 0 0 0 0 0 0 0 0 0 0 0 0 0 0 0 0 0 0 0 0 0 0 0 0 0 0 0 0 


CELL_DATA 66
SCALARS GMDS_ID int 1
LOOKUP_TABLE default
0 2 3 4 5 6 12 14 15 16 17 19 20 22 24 25 26 27 29 31 32 33 34 36 38 40 42 44 45 46 48 50 51 52 53 54 55 56 57 58 59 60 61 62 63 64 65 66 67 68 69 70 71 73 74 75 76 77 78 79 81 82 83 84 85 86 

SCALARS geom_link_dim_0 int 1
LOOKUP_TABLE default
0 0 0 0 0 0 0 0 0 0 0 0 0 0 0 0 0 0 0 0 0 0 0 0 0 0 0 0 0 0 0 0 0 0 0 0 0 0 0 0 0 0 0 0 0 0 0 0 0 0 0 0 0 0 0 0 0 0 0 0 0 0 0 0 0 0 

SCALARS geom_link_id_0 int 1
LOOKUP_TABLE default
0 0 0 0 0 0 0 0 0 0 0 0 0 0 0 0 0 0 0 0 0 0 0 0 0 0 0 0 0 0 0 0 0 0 0 0 0 0 0 0 0 0 0 0 0 0 0 0 0 0 0 0 0 0 0 0 0 0 0 0 0 0 0 0 0 0 

