# vtk DataFile Version 3.0
Generated by GMDS VTK Writer

ASCII
DATASET UNSTRUCTURED_GRID
POINTS 22 float
-5 0 0
-5 10 0
10 10 0
10 0 0
-5 0 10
-5 0 5
10 0 5
10 10 5
-5 10 5
5 0 0
5 10 0
5 10 5
5 0 5
5 0 10
-5 5 0
-5 5 5
5 5 5
5 5 0
10 5 5
10 5 0
-5 5 10
5 5 10

CELLS 41 123
2 5 15
2 12 16
2 0 14
2 14 1
2 10 2
2 1 10
2 0 9
2 9 3
2 0 5
2 5 4
2 3 6
2 2 7
2 1 8
2 16 11
2 15 8
2 8 11
2 11 7
2 5 12
2 12 6
2 10 11
2 9 12
2 4 13
2 13 12
2 9 17
2 17 10
2 14 15
2 15 16
2 17 16
2 14 17
2 6 18
2 18 7
2 3 19
2 19 2
2 18 16
2 19 18
2 19 17
2 4 20
2 13 21
2 20 15
2 16 21
2 20 21

CELL_TYPES 41
3 
3 
3 
3 
3 
3 
3 
3 
3 
3 
3 
3 
3 
3 
3 
3 
3 
3 
3 
3 
3 
3 
3 
3 
3 
3 
3 
3 
3 
3 
3 
3 
3 
3 
3 
3 
3 
3 
3 
3 
3 
POINT_DATA 22
SCALARS GMDS_ID int 1
LOOKUP_TABLE default
0 1 2 3 4 8 9 10 11 12 13 14 15 17 18 19 20 21 22 23 24 25 
SCALARS geom_link_dim int 1
LOOKUP_TABLE default
1 0 0 1 0 1 1 0 0 2 1 1 1 1 1 1 1 1 1 1 0 1 
SCALARS geom_link_id int 1
LOOKUP_TABLE default
5 -1 -1 6 -1 7 10 -1 -1 17 16 22 9 8 19 13 12 15 20 14 -1 11 


CELL_DATA 41
SCALARS GMDS_ID int 1
LOOKUP_TABLE default
1 3 5 7 8 9 10 11 12 13 14 16 18 20 22 24 25 26 27 29 31 34 38 39 40 41 42 43 44 45 46 47 48 49 50 51 52 54 56 57 58 

SCALARS geom_link_dim int 1
LOOKUP_TABLE default
2 2 2 0 0 0 2 2 2 0 2 0 0 2 0 0 0 0 2 2 0 0 2 0 2 2 0 0 0 2 0 2 0 2 2 2 0 2 0 2 0 

SCALARS geom_link_id int 1
LOOKUP_TABLE default
34 2 10 0 0 0 17 17 27 0 30 0 0 28 0 0 0 0 22 35 0 0 29 0 7 20 0 0 0 32 0 11 0 19 25 16 0 26 0 18 0 

