# vtk DataFile Version 3.0
Generated by GMDS VTK Writer

ASCII
DATASET UNSTRUCTURED_GRID
POINTS 30 float
-5 0 0
-5 10 0
10 10 0
10 0 0
5 5 5
5 5 0
0 10 0
-4.44089209850063e-16 0 0
-5 0 5
10 0 5
10 10 5
-5 10 5
5 0 0
5 10 0
5 10 5
5 0 5
5 10 10
5 0 10
0 10 5
0 0 5
-4.44089209850063e-16 10 10
0 0 10
10 5 5
10 5 0
-5 5 0
-5 5 5
0 5 5
0 5 0
0 5 10
5 5 10

CELLS 59 177
2 4 14
2 1 6
2 13 2
2 12 3
2 0 8
2 5 13
2 3 9
2 7 12
2 2 10
2 0 7
2 1 11
2 9 22
2 14 10
2 15 9
2 13 14
2 12 15
2 11 18
2 6 13
2 16 14
2 17 15
2 18 14
2 8 19
2 19 15
2 6 18
2 7 19
2 15 4
2 20 16
2 12 5
2 21 17
2 20 18
2 21 19
2 22 10
2 3 23
2 23 2
2 5 4
2 22 4
2 23 22
2 23 5
2 0 24
2 24 1
2 8 25
2 25 11
2 19 26
2 26 18
2 7 27
2 27 6
2 24 25
2 25 26
2 27 26
2 24 27
2 4 26
2 27 5
2 21 28
2 28 20
2 17 29
2 29 16
2 26 28
2 4 29
2 29 28

CELL_TYPES 59
3 
3 
3 
3 
3 
3 
3 
3 
3 
3 
3 
3 
3 
3 
3 
3 
3 
3 
3 
3 
3 
3 
3 
3 
3 
3 
3 
3 
3 
3 
3 
3 
3 
3 
3 
3 
3 
3 
3 
3 
3 
3 
3 
3 
3 
3 
3 
3 
3 
3 
3 
3 
3 
3 
3 
3 
3 
3 
3 
POINT_DATA 30
SCALARS GMDS_ID int 1
LOOKUP_TABLE default
0 1 2 3 4 5 6 7 8 9 10 11 12 13 14 15 16 17 18 19 20 21 22 23 24 25 26 27 28 29 
SCALARS geom_link_dim int 1
LOOKUP_TABLE default
1 0 0 1 1 1 1 2 1 1 0 0 2 1 1 1 0 1 1 1 0 1 1 1 1 1 1 1 1 1 
SCALARS geom_link_id int 1
LOOKUP_TABLE default
5 -1 -1 6 12 15 17 17 7 10 -1 -1 17 16 22 9 -1 8 21 1 -1 2 20 14 19 13 4 18 3 11 


CELL_DATA 59
SCALARS GMDS_ID int 1
LOOKUP_TABLE default
2 3 4 5 6 7 8 9 10 11 12 13 16 17 19 21 22 23 24 26 27 28 29 31 33 34 35 36 37 38 40 41 42 43 44 45 46 47 48 49 50 51 52 53 54 55 56 57 58 59 60 61 62 63 64 65 66 67 68 

SCALARS geom_link_dim int 1
LOOKUP_TABLE default
2 0 0 2 2 2 2 2 0 2 0 2 0 2 2 0 0 2 0 2 2 2 0 2 0 2 0 0 2 0 2 0 2 0 0 2 2 2 2 0 2 0 2 2 0 2 2 2 0 2 0 0 2 0 2 0 2 2 2 

SCALARS geom_link_id int 1
LOOKUP_TABLE default
28 0 0 17 27 7 30 17 0 17 0 32 0 22 35 0 0 13 0 29 21 6 0 36 0 2 0 -1 31 0 8 -1 11 -1 -1 19 25 16 10 -1 34 -1 5 24 -1 12 20 9 -1 23 -1 -1 15 -1 26 -1 14 18 33 

