# vtk DataFile Version 3.0
Generated by GMDS VTK Writer

ASCII
DATASET UNSTRUCTURED_GRID
POINTS 22 float
-5 0 0
-5 10 0
10 10 0
10 0 0
10 10 10
10 0 10
5 10 0
5 0 0
5 0 10
5 10 10
10 10 5
10 0 5
5 0 5
5 10 5
-5 0 5
-5 10 5
8.88178419700125e-16 0 0
0 10 0
0 10 5
0 0 5
8.88178419700125e-16 10 10
0 0 10

CELLS 41 123
2 0 1
2 3 11
2 2 3
2 11 5
2 2 10
2 4 5
2 10 4
2 18 13
2 17 6
2 16 7
2 0 16
2 2 6
2 3 7
2 5 8
2 4 9
2 6 7
2 15 18
2 9 8
2 1 17
2 7 12
2 12 8
2 6 13
2 13 9
2 10 11
2 11 12
2 13 12
2 10 13
2 0 14
2 1 15
2 14 15
2 14 19
2 19 12
2 16 17
2 17 18
2 19 18
2 16 19
2 20 9
2 21 8
2 20 18
2 21 20
2 21 19

CELL_TYPES 41
3 
3 
3 
3 
3 
3 
3 
3 
3 
3 
3 
3 
3 
3 
3 
3 
3 
3 
3 
3 
3 
3 
3 
3 
3 
3 
3 
3 
3 
3 
3 
3 
3 
3 
3 
3 
3 
3 
3 
3 
3 
POINT_DATA 22
SCALARS GMDS_ID int 1
LOOKUP_TABLE default
0 1 2 3 6 7 8 9 10 11 12 13 14 15 16 17 18 19 20 21 22 23 
SCALARS geom_link_dim int 1
LOOKUP_TABLE default
1 0 0 1 0 0 1 2 1 0 0 1 1 1 1 0 2 1 1 1 0 1 
SCALARS geom_link_id int 1
LOOKUP_TABLE default
5 -1 -1 6 -1 -1 16 17 8 -1 -1 10 9 22 7 -1 17 17 21 1 -1 2 


CELL_DATA 41
SCALARS GMDS_ID int 1
LOOKUP_TABLE default
0 1 2 3 5 6 7 8 9 10 11 12 14 16 18 20 21 22 23 24 25 26 27 28 29 30 31 32 34 37 39 40 41 42 43 44 46 48 49 50 51 

SCALARS geom_link_dim int 1
LOOKUP_TABLE default
0 2 0 0 0 0 0 2 2 2 2 0 2 0 0 0 0 0 0 0 2 2 0 0 2 0 0 2 0 0 2 0 0 2 0 0 0 2 0 0 2 

SCALARS geom_link_id int 1
LOOKUP_TABLE default
0 30 0 0 0 0 0 21 13 17 17 0 17 0 0 0 0 0 0 0 29 35 0 0 22 0 0 27 0 0 6 0 0 36 0 0 0 31 0 0 8 

