# vtk DataFile Version 3.0
Generated by GMDS VTK Writer

ASCII
DATASET UNSTRUCTURED_GRID
POINTS 26 float
-5 0 0
10 0 0
-5 0 10
0 10 0
8.88178419700125e-16 0 0
0 0 10
10 5 0
0 5 10
0 5 0
-5 5 10
-5 5 0
5 5 0
5 5 10
5 10 0
5 0 0
5 0 10
10 5 5
5 5 5
5 10 5
-5 0 5
0 0 5
0 5 5
-5 5 5
0 10 5
10 0 5
5 0 5

CELLS 49 147
2 6 11
2 12 7
2 1 6
2 11 8
2 11 17
2 4 0
2 17 12
2 5 2
2 5 7
2 4 8
2 8 3
2 6 16
2 2 9
2 0 10
2 9 7
2 10 8
2 13 3
2 13 11
2 1 14
2 14 4
2 15 5
2 15 12
2 14 11
2 13 18
2 16 17
2 17 18
2 0 19
2 19 2
2 4 20
2 20 5
2 8 21
2 21 7
2 10 22
2 22 9
2 19 20
2 20 21
2 21 22
2 19 22
2 3 23
2 23 21
2 21 17
2 23 18
2 1 24
2 14 25
2 25 15
2 24 16
2 17 25
2 24 25
2 20 25

CELL_TYPES 49
3 
3 
3 
3 
3 
3 
3 
3 
3 
3 
3 
3 
3 
3 
3 
3 
3 
3 
3 
3 
3 
3 
3 
3 
3 
3 
3 
3 
3 
3 
3 
3 
3 
3 
3 
3 
3 
3 
3 
3 
3 
3 
3 
3 
3 
3 
3 
3 
3 
POINT_DATA 26
SCALARS GMDS_ID int 1
LOOKUP_TABLE default
0 3 4 8 9 10 12 14 15 16 17 18 19 21 22 23 25 26 27 28 29 30 31 32 34 35 
SCALARS geom_link_dim_0 int 1
LOOKUP_TABLE default
0 0 0 0 0 0 0 0 0 0 0 0 0 0 0 0 0 0 0 0 0 0 0 0 0 0 
SCALARS geom_link_id_0 int 1
LOOKUP_TABLE default
0 0 0 0 0 0 0 0 0 0 0 0 0 0 0 0 0 0 0 0 0 0 0 0 0 0 


CELL_DATA 49
SCALARS GMDS_ID int 1
LOOKUP_TABLE default
2 4 5 6 14 15 16 17 24 26 27 31 32 34 36 38 40 44 45 46 48 50 51 52 55 56 58 59 60 61 62 63 64 65 66 67 68 69 70 74 77 78 79 81 82 83 84 85 86 

SCALARS geom_link_dim_0 int 1
LOOKUP_TABLE default
0 0 0 0 0 0 0 0 0 0 0 0 0 0 0 0 0 0 0 0 0 0 0 0 0 0 0 0 0 0 0 0 0 0 0 0 0 0 0 0 0 0 0 0 0 0 0 0 0 

SCALARS geom_link_id_0 int 1
LOOKUP_TABLE default
0 0 0 0 0 0 0 0 0 0 0 0 0 0 0 0 0 0 0 0 0 0 0 0 0 0 0 0 0 0 0 0 0 0 0 0 0 0 0 0 0 0 0 0 0 0 0 0 0 

