# vtk DataFile Version 3.0
Generated by GMDS VTK Writer

ASCII
DATASET UNSTRUCTURED_GRID
POINTS 36 float
-5 0 0
-5 10 0
10 10 0
10 0 0
-5 0 10
-5 10 10
10 10 10
10 0 10
5 10 0
5 0 0
5 0 10
5 10 10
0 10 0
8.88178419700125e-16 0 0
0 0 10
8.88178419700125e-16 10 10
0 10 5
0 0 5
-5 0 5
-5 10 5
5 10 5
5 0 5
10 10 5
10 0 5
-5 5 5
0 5 5
0 5 10
-5 5 10
-5 5 0
0 5 0
5 5 0
5 5 5
5 5 10
10 5 0
10 5 5
10 5 10

CELLS 75 225
2 9 13
2 13 0
2 8 12
2 12 1
2 27 5
2 26 15
2 18 24
2 24 19
2 2 8
2 12 16
2 3 9
2 13 17
2 7 10
2 17 14
2 6 11
2 16 15
2 17 25
2 25 16
2 10 14
2 14 4
2 11 15
2 15 5
2 4 27
2 14 26
2 0 18
2 18 4
2 1 19
2 19 5
2 18 17
2 19 16
2 8 20
2 20 11
2 9 21
2 21 10
2 21 17
2 20 16
2 2 22
2 22 6
2 3 23
2 23 7
2 23 21
2 22 20
2 25 24
2 26 25
2 27 26
2 27 24
2 0 28
2 28 1
2 13 29
2 29 12
2 28 29
2 29 25
2 28 24
2 9 30
2 30 8
2 21 31
2 31 20
2 30 29
2 25 31
2 30 31
2 10 32
2 32 11
2 32 26
2 32 31
2 3 33
2 33 2
2 23 34
2 34 22
2 33 30
2 31 34
2 33 34
2 7 35
2 35 6
2 35 32
2 35 34

CELL_TYPES 75
3 
3 
3 
3 
3 
3 
3 
3 
3 
3 
3 
3 
3 
3 
3 
3 
3 
3 
3 
3 
3 
3 
3 
3 
3 
3 
3 
3 
3 
3 
3 
3 
3 
3 
3 
3 
3 
3 
3 
3 
3 
3 
3 
3 
3 
3 
3 
3 
3 
3 
3 
3 
3 
3 
3 
3 
3 
3 
3 
3 
3 
3 
3 
3 
3 
3 
3 
3 
3 
3 
3 
3 
3 
3 
3 
POINT_DATA 36
SCALARS GMDS_ID int 1
LOOKUP_TABLE default
0 1 2 3 4 5 6 7 8 9 10 11 12 13 14 15 16 17 18 19 20 21 22 23 24 25 26 27 28 29 30 31 32 33 34 35 
SCALARS geom_link_dim int 1
LOOKUP_TABLE default
1 0 0 1 0 0 0 0 1 2 1 0 1 2 1 0 1 1 1 0 1 1 0 1 1 0 1 0 1 1 1 0 1 1 1 0 
SCALARS geom_link_id int 1
LOOKUP_TABLE default
5 -1 -1 6 -1 -1 -1 -1 16 17 8 -1 17 17 2 -1 21 1 7 -1 22 9 -1 10 13 -1 3 -1 19 18 15 -1 11 14 20 -1 


CELL_DATA 75
SCALARS GMDS_ID int 1
LOOKUP_TABLE default
1 3 5 7 8 9 10 11 12 13 14 15 16 17 18 19 21 23 24 25 26 27 29 31 32 33 34 35 37 39 40 41 42 43 45 46 47 48 49 50 52 53 54 55 56 57 58 59 60 61 62 63 64 65 66 67 68 69 70 71 72 73 74 75 76 77 78 79 80 81 82 83 84 85 86 

SCALARS geom_link_dim int 1
LOOKUP_TABLE default
2 2 2 0 0 0 2 0 0 2 2 0 0 2 0 0 0 0 2 0 0 0 0 2 2 0 0 0 2 0 2 0 0 2 0 2 0 0 2 0 2 0 0 0 0 0 2 0 0 2 2 0 2 0 2 0 0 0 0 0 2 0 2 0 2 0 2 0 2 0 2 0 0 0 0 

SCALARS geom_link_id int 1
LOOKUP_TABLE default
17 17 13 0 -1 -1 34 -1 0 36 17 0 0 8 0 0 -1 -1 31 0 0 0 -1 15 27 0 0 0 6 0 35 0 0 29 0 21 0 0 30 0 22 0 -1 -1 -1 -1 10 -1 -1 12 23 -1 20 -1 7 -1 -1 -1 -1 -1 26 -1 33 -1 11 -1 32 -1 16 -1 25 -1 -1 -1 -1 

