# vtk DataFile Version 3.0
Generated by GMDS VTK Writer

ASCII
DATASET UNSTRUCTURED_GRID
POINTS 22 float
-5 0 0
-5 10 0
10 5 5
10 0 0
-5 0 10
-5 10 10
10 0 5
-5 5 0
-5 5 10
10 5 0
5 0 0
5 0 10
5 5 10
5 5 0
5 10 10
5 10 0
5 5 5
5 0 5
-5 5 5
-5 0 5
5 10 5
-5 10 5

CELLS 41 123
2 11 4
2 16 12
2 17 16
2 10 0
2 10 17
2 3 10
2 2 16
2 9 2
2 0 7
2 7 1
2 4 8
2 8 5
2 13 16
2 3 9
2 3 6
2 17 11
2 6 2
2 12 8
2 9 13
2 13 7
2 11 12
2 10 13
2 14 5
2 15 1
2 14 12
2 15 13
2 6 17
2 7 18
2 18 8
2 0 19
2 19 4
2 18 16
2 19 18
2 19 17
2 15 20
2 20 14
2 1 21
2 21 5
2 16 20
2 21 18
2 21 20

CELL_TYPES 41
3 
3 
3 
3 
3 
3 
3 
3 
3 
3 
3 
3 
3 
3 
3 
3 
3 
3 
3 
3 
3 
3 
3 
3 
3 
3 
3 
3 
3 
3 
3 
3 
3 
3 
3 
3 
3 
3 
3 
3 
3 
POINT_DATA 22
SCALARS GMDS_ID int 1
LOOKUP_TABLE default
0 1 2 3 4 5 6 8 9 11 12 13 14 15 16 17 18 19 20 21 22 23 
SCALARS geom_link_dim int 1
LOOKUP_TABLE default
1 0 1 1 0 0 1 1 0 1 2 1 1 1 0 1 1 1 1 1 1 0 
SCALARS geom_link_id int 1
LOOKUP_TABLE default
5 -1 20 6 -1 -1 10 19 -1 14 17 8 11 15 -1 16 12 9 13 7 22 -1 


CELL_DATA 41
SCALARS GMDS_ID int 1
LOOKUP_TABLE default
0 1 3 4 5 6 7 10 12 13 14 15 17 18 19 21 23 25 26 27 29 31 33 35 36 38 39 40 41 42 43 44 45 46 47 48 49 50 51 52 53 

SCALARS geom_link_dim int 1
LOOKUP_TABLE default
0 2 2 2 0 2 2 2 2 0 0 0 2 2 2 2 2 0 2 0 2 0 0 0 0 2 2 2 0 2 0 0 2 0 2 0 0 0 2 0 0 

SCALARS geom_link_id int 1
LOOKUP_TABLE default
0 18 2 17 0 17 19 25 10 0 0 0 3 11 30 29 32 0 16 0 26 0 0 0 0 7 22 20 0 27 0 0 34 0 35 0 0 0 28 0 0 

