# vtk DataFile Version 3.0
Generated by GMDS VTK Writer

ASCII
DATASET UNSTRUCTURED_GRID
POINTS 22 float
-5 0 0
-5 10 0
10 10 0
10 0 0
-5 0 10
-5 10 10
0 10 0
-4.44089209850063e-16 0 0
-5 0 5
10 0 5
10 10 5
-5 10 5
5 0 0
5 10 0
5 10 5
5 0 5
5 10 10
5 0 10
0 10 5
0 0 5
-4.44089209850063e-16 10 10
0 0 10

CELLS 41 123
2 0 1
2 2 3
2 4 5
2 1 6
2 13 2
2 12 3
2 0 8
2 8 4
2 3 9
2 7 12
2 2 10
2 0 7
2 1 11
2 11 5
2 10 9
2 8 11
2 14 10
2 15 9
2 12 13
2 13 14
2 15 14
2 12 15
2 11 18
2 6 13
2 16 14
2 17 16
2 17 15
2 18 14
2 8 19
2 19 15
2 7 6
2 6 18
2 19 18
2 7 19
2 5 20
2 20 16
2 4 21
2 21 17
2 20 18
2 21 20
2 21 19

CELL_TYPES 41
3 
3 
3 
3 
3 
3 
3 
3 
3 
3 
3 
3 
3 
3 
3 
3 
3 
3 
3 
3 
3 
3 
3 
3 
3 
3 
3 
3 
3 
3 
3 
3 
3 
3 
3 
3 
3 
3 
3 
3 
3 
POINT_DATA 22
SCALARS GMDS_ID int 1
LOOKUP_TABLE default
0 1 2 3 4 5 6 7 8 9 10 11 12 13 14 15 16 17 18 19 20 21 
SCALARS geom_link_dim int 1
LOOKUP_TABLE default
1 0 0 1 0 0 1 2 1 1 0 0 2 1 1 1 0 1 1 1 0 1 
SCALARS geom_link_id int 1
LOOKUP_TABLE default
5 -1 -1 6 -1 -1 17 17 7 10 -1 -1 17 16 22 9 -1 8 21 1 -1 2 


CELL_DATA 41
SCALARS GMDS_ID int 1
LOOKUP_TABLE default
0 1 2 3 4 7 8 9 10 11 12 13 14 15 16 17 19 21 22 23 24 25 27 29 30 31 32 33 34 35 36 37 38 39 40 41 42 43 44 45 46 

SCALARS geom_link_dim int 1
LOOKUP_TABLE default
0 0 0 0 0 2 2 0 2 2 0 2 0 0 0 0 0 2 0 2 0 0 0 2 0 0 2 2 2 0 0 2 0 0 0 0 0 2 0 0 2 

SCALARS geom_link_id int 1
LOOKUP_TABLE default
0 0 0 -1 0 17 27 0 30 17 0 17 0 0 0 0 0 22 0 35 0 0 -1 13 0 0 29 21 6 -1 -1 36 -1 -1 -1 -1 -1 31 -1 -1 8 

