# vtk DataFile Version 3.0
Generated by GMDS VTK Writer

ASCII
DATASET UNSTRUCTURED_GRID
POINTS 30 float
-5 0 0
-5 10 0
10 5 5
10 0 0
-5 10 10
10 0 5
0 5 0
-5 5 0
-5 5 10
8.88178419700125e-16 0 0
10 5 0
5 0 0
5 0 10
5 5 10
5 5 0
5 10 10
5 10 0
5 5 5
5 0 5
-5 5 5
-5 0 5
5 10 5
-5 10 5
0 5 5
0 0 5
0 5 10
0 0 10
0 10 0
0 10 5
8.88178419700125e-16 10 10

CELLS 59 177
2 17 13
2 0 9
2 18 17
2 11 18
2 3 11
2 2 17
2 8 25
2 23 17
2 10 2
2 24 18
2 0 7
2 7 1
2 8 4
2 19 23
2 14 17
2 3 10
2 3 5
2 23 24
2 18 12
2 9 6
2 5 2
2 7 6
2 10 14
2 9 24
2 12 13
2 6 23
2 11 14
2 6 14
2 9 11
2 15 13
2 20 24
2 16 14
2 5 18
2 7 19
2 19 8
2 0 20
2 20 19
2 16 21
2 21 15
2 1 22
2 22 4
2 17 21
2 22 19
2 25 13
2 26 12
2 25 23
2 26 25
2 26 24
2 1 27
2 27 16
2 22 28
2 28 21
2 27 6
2 23 28
2 27 28
2 4 29
2 29 15
2 29 25
2 29 28

CELL_TYPES 59
3 
3 
3 
3 
3 
3 
3 
3 
3 
3 
3 
3 
3 
3 
3 
3 
3 
3 
3 
3 
3 
3 
3 
3 
3 
3 
3 
3 
3 
3 
3 
3 
3 
3 
3 
3 
3 
3 
3 
3 
3 
3 
3 
3 
3 
3 
3 
3 
3 
3 
3 
3 
3 
3 
3 
3 
3 
3 
3 
POINT_DATA 30
SCALARS GMDS_ID int 1
LOOKUP_TABLE default
0 1 2 3 5 6 7 8 9 10 11 12 13 14 15 16 17 18 19 20 21 22 23 24 25 26 27 28 29 30 
SCALARS geom_link_dim int 1
LOOKUP_TABLE default
1 0 1 1 0 1 1 1 0 2 1 2 1 1 1 0 1 1 1 1 1 1 0 1 1 1 1 1 1 0 
SCALARS geom_link_id int 1
LOOKUP_TABLE default
5 -1 20 6 -1 10 18 19 -1 17 14 17 8 11 15 -1 16 12 9 13 7 22 -1 4 1 3 2 17 21 -1 


CELL_DATA 59
SCALARS GMDS_ID int 1
LOOKUP_TABLE default
1 2 3 5 6 7 8 9 10 11 12 13 15 16 17 18 19 20 21 22 23 24 26 28 29 30 31 32 34 36 37 38 39 40 41 42 45 47 48 49 50 51 52 54 56 57 58 59 60 61 62 63 64 65 66 67 68 69 70 

SCALARS geom_link_dim int 1
LOOKUP_TABLE default
2 2 2 0 2 2 0 0 2 0 2 0 0 2 2 2 2 2 2 0 2 2 2 0 2 0 0 0 2 0 2 2 2 2 0 2 2 2 0 0 0 2 0 2 2 2 2 2 0 2 0 2 2 0 2 0 0 0 0 

SCALARS geom_link_id int 1
LOOKUP_TABLE default
18 17 2 0 17 19 0 0 25 0 10 0 0 9 3 11 30 5 29 0 32 23 16 0 26 0 0 0 17 0 6 7 22 20 0 27 34 35 0 0 0 28 0 33 31 14 15 8 0 13 0 21 12 0 36 0 0 0 0 

