# vtk DataFile Version 3.0
Generated by GMDS VTK Writer

ASCII
DATASET UNSTRUCTURED_GRID
POINTS 32 float
-5 0 0
-5 10 0
10 10 0
10 0 0
5 5 5
10 5 5
10 0 10
5 10 0
5 0 0
5 0 10
5 10 10
10 10 5
10 0 5
5 0 5
5 10 5
-5 0 5
-5 10 5
8.88178419700125e-16 0 0
0 10 0
0 10 5
0 0 5
8.88178419700125e-16 10 10
0 0 10
5 5 10
10 5 10
-5 5 0
-5 5 5
0 5 5
0 5 0
10 5 0
5 5 0
0 5 10

CELLS 64 192
2 3 12
2 12 6
2 13 4
2 2 11
2 19 14
2 18 7
2 17 8
2 0 17
2 2 7
2 3 8
2 23 4
2 6 9
2 6 24
2 23 10
2 16 19
2 1 18
2 8 13
2 13 9
2 7 14
2 14 10
2 12 13
2 11 14
2 0 15
2 12 5
2 1 16
2 9 23
2 24 23
2 5 4
2 15 20
2 20 13
2 18 19
2 17 20
2 4 14
2 21 10
2 5 11
2 22 9
2 21 19
2 22 20
2 24 5
2 0 25
2 25 1
2 15 26
2 26 16
2 20 27
2 27 19
2 17 28
2 28 18
2 25 26
2 26 27
2 28 27
2 25 28
2 3 29
2 29 2
2 8 30
2 30 7
2 29 30
2 30 4
2 29 5
2 4 27
2 30 28
2 22 31
2 31 21
2 27 31
2 23 31

CELL_TYPES 64
3 
3 
3 
3 
3 
3 
3 
3 
3 
3 
3 
3 
3 
3 
3 
3 
3 
3 
3 
3 
3 
3 
3 
3 
3 
3 
3 
3 
3 
3 
3 
3 
3 
3 
3 
3 
3 
3 
3 
3 
3 
3 
3 
3 
3 
3 
3 
3 
3 
3 
3 
3 
3 
3 
3 
3 
3 
3 
3 
3 
3 
3 
3 
3 
POINT_DATA 32
SCALARS GMDS_ID int 1
LOOKUP_TABLE default
0 1 2 3 4 5 7 8 9 10 11 12 13 14 15 16 17 18 19 20 21 22 23 24 25 26 27 28 29 30 31 32 
SCALARS geom_link_dim int 1
LOOKUP_TABLE default
1 0 0 1 1 1 0 1 2 1 0 0 1 1 1 1 0 2 1 1 1 0 1 1 0 1 1 1 1 1 1 1 
SCALARS geom_link_id int 1
LOOKUP_TABLE default
5 -1 -1 6 12 20 -1 16 17 8 -1 -1 10 9 22 7 -1 17 17 21 1 -1 2 11 -1 19 13 4 18 14 15 3 


CELL_DATA 64
SCALARS GMDS_ID int 1
LOOKUP_TABLE default
1 3 4 5 8 9 10 11 12 14 15 16 17 19 21 23 24 25 26 27 29 31 32 33 34 35 36 38 39 40 42 44 45 46 47 48 49 51 52 53 54 55 56 57 58 59 60 61 62 63 64 65 66 67 68 69 70 71 72 73 74 75 76 77 

SCALARS geom_link_dim int 1
LOOKUP_TABLE default
2 0 0 0 2 2 2 2 0 2 2 0 0 0 0 0 0 2 2 0 2 0 2 2 0 2 0 2 2 0 2 0 2 0 0 2 0 2 0 2 0 2 0 2 2 0 2 2 2 0 2 2 0 0 2 2 0 2 0 0 2 0 2 2 

SCALARS geom_link_id int 1
LOOKUP_TABLE default
30 0 0 0 21 13 17 17 0 17 18 0 0 0 0 0 0 29 35 0 22 0 27 32 0 26 0 19 6 0 36 0 28 0 0 31 0 8 0 10 0 34 0 5 24 0 12 20 9 0 23 11 0 0 7 16 0 25 0 0 15 0 14 33 

