# vtk DataFile Version 3.0
Generated by GMDS VTK Writer

ASCII
DATASET UNSTRUCTURED_GRID
POINTS 26 float
-5 0 0
-5 10 0
10 10 0
10 0 0
-5 0 10
-5 10 10
10 0 10
-5 0 5
10 0 5
10 10 5
-5 10 5
5 0 0
5 10 0
5 10 5
5 0 5
5 10 10
5 0 10
-5 5 0
-5 5 5
5 5 5
5 5 0
10 5 5
10 5 0
-5 5 10
5 5 10
10 5 10

CELLS 51 153
2 7 18
2 14 19
2 0 17
2 17 1
2 12 2
2 1 12
2 0 11
2 11 3
2 0 7
2 7 4
2 3 8
2 8 6
2 2 9
2 1 10
2 10 5
2 19 13
2 18 10
2 10 13
2 13 9
2 7 14
2 14 8
2 12 13
2 11 14
2 5 15
2 4 16
2 16 6
2 15 13
2 16 14
2 11 20
2 20 12
2 17 18
2 18 19
2 20 19
2 17 20
2 8 21
2 21 9
2 3 22
2 22 2
2 21 19
2 22 21
2 22 20
2 4 23
2 23 5
2 16 24
2 24 15
2 23 18
2 19 24
2 23 24
2 6 25
2 25 21
2 25 24

CELL_TYPES 51
3 
3 
3 
3 
3 
3 
3 
3 
3 
3 
3 
3 
3 
3 
3 
3 
3 
3 
3 
3 
3 
3 
3 
3 
3 
3 
3 
3 
3 
3 
3 
3 
3 
3 
3 
3 
3 
3 
3 
3 
3 
3 
3 
3 
3 
3 
3 
3 
3 
3 
3 
POINT_DATA 26
SCALARS GMDS_ID int 1
LOOKUP_TABLE default
0 1 2 3 4 5 7 8 9 10 11 12 13 14 15 16 17 18 19 20 21 22 23 24 25 26 
SCALARS geom_link_dim int 1
LOOKUP_TABLE default
1 0 0 1 0 0 0 1 1 0 0 2 1 1 1 0 1 1 1 1 1 1 1 0 1 0 
SCALARS geom_link_id int 1
LOOKUP_TABLE default
5 -1 -1 6 -1 -1 -1 7 10 -1 -1 17 16 22 9 -1 8 19 13 12 15 20 14 -1 11 -1 


CELL_DATA 51
SCALARS GMDS_ID int 1
LOOKUP_TABLE default
1 3 5 7 8 9 10 11 12 13 14 15 16 18 19 20 22 24 25 26 27 29 31 32 34 35 36 38 39 40 41 42 43 44 45 46 47 48 49 50 51 52 53 54 55 56 57 58 59 61 62 

SCALARS geom_link_dim int 1
LOOKUP_TABLE default
2 0 2 0 0 0 2 2 2 0 2 0 0 0 0 2 0 0 0 0 2 2 0 0 0 0 0 2 0 2 2 0 0 0 2 0 2 0 2 2 2 0 0 2 0 0 2 0 0 0 0 

SCALARS geom_link_id int 1
LOOKUP_TABLE default
34 0 10 0 0 0 17 17 27 0 30 0 0 0 0 28 0 0 0 0 22 35 0 0 0 0 0 29 0 7 20 0 0 0 32 0 11 0 19 25 16 0 0 26 0 0 18 0 0 0 0 

