# vtk DataFile Version 3.0
Generated by GMDS VTK Writer

ASCII
DATASET UNSTRUCTURED_GRID
POINTS 24 float
-5 0 0
10 0 0
5 5 5
5 5 0
0 10 0
-4.44089209850063e-16 0 0
-5 0 5
10 0 5
5 0 0
5 10 0
5 10 5
5 0 5
5 0 10
0 10 5
0 0 5
0 0 10
10 5 5
10 5 0
-5 5 0
-5 5 5
0 5 5
0 5 0
0 5 10
5 5 10

CELLS 44 132
2 2 10
2 8 1
2 0 6
2 3 9
2 1 7
2 5 8
2 0 5
2 7 16
2 11 7
2 9 10
2 8 11
2 4 9
2 12 11
2 13 10
2 6 14
2 14 11
2 4 13
2 5 14
2 11 2
2 8 3
2 15 12
2 15 14
2 1 17
2 3 2
2 16 2
2 17 16
2 17 3
2 0 18
2 6 19
2 14 20
2 20 13
2 5 21
2 21 4
2 18 19
2 19 20
2 21 20
2 18 21
2 2 20
2 21 3
2 15 22
2 12 23
2 20 22
2 2 23
2 23 22

CELL_TYPES 44
3 
3 
3 
3 
3 
3 
3 
3 
3 
3 
3 
3 
3 
3 
3 
3 
3 
3 
3 
3 
3 
3 
3 
3 
3 
3 
3 
3 
3 
3 
3 
3 
3 
3 
3 
3 
3 
3 
3 
3 
3 
3 
3 
3 
POINT_DATA 24
SCALARS GMDS_ID int 1
LOOKUP_TABLE default
0 1 2 3 4 5 6 7 8 9 10 11 13 14 15 17 18 19 20 21 22 23 24 25 
SCALARS geom_link_dim int 1
LOOKUP_TABLE default
1 1 1 1 1 2 1 1 2 1 1 1 1 1 1 1 1 1 1 1 1 1 1 1 
SCALARS geom_link_id int 1
LOOKUP_TABLE default
5 6 12 15 17 17 7 10 17 16 22 9 8 21 1 2 20 14 19 13 4 18 3 11 


CELL_DATA 44
SCALARS GMDS_ID int 1
LOOKUP_TABLE default
0 1 2 3 4 5 6 7 8 9 10 11 13 14 15 16 17 18 19 21 22 24 25 26 27 28 29 30 31 32 33 34 35 36 37 38 39 40 41 42 44 46 47 48 

SCALARS geom_link_dim int 1
LOOKUP_TABLE default
2 2 2 2 2 2 2 2 2 2 3 2 2 2 2 3 2 3 2 3 2 2 2 2 2 2 2 2 2 2 2 3 2 2 2 2 2 2 3 2 2 2 2 2 

SCALARS geom_link_id int 1
LOOKUP_TABLE default
28 17 27 7 30 17 17 32 22 35 1 13 29 21 6 2 36 2 2 1 31 8 11 3 19 25 16 10 34 5 24 1 12 20 9 1 23 4 1 15 26 14 18 33 

