# vtk DataFile Version 3.0
Generated by GMDS VTK Writer

ASCII
DATASET UNSTRUCTURED_GRID
POINTS 26 float
-5 0 0
-5 10 0
10 0 0
5 10 0
5 0 0
5 0 10
0 10 0
8.88178419700125e-16 0 0
0 0 10
0 10 5
0 0 5
-5 0 5
-5 10 5
5 10 5
5 0 5
10 0 5
-5 5 5
0 5 5
0 5 10
-5 5 0
0 5 0
5 5 0
5 5 5
5 5 10
10 5 0
10 5 5

CELLS 49 147
2 4 7
2 7 0
2 3 6
2 6 1
2 11 16
2 16 12
2 6 9
2 2 4
2 7 10
2 10 8
2 10 17
2 17 9
2 5 8
2 8 18
2 0 11
2 1 12
2 11 10
2 12 9
2 3 13
2 4 14
2 14 5
2 14 10
2 13 9
2 2 15
2 15 14
2 17 16
2 18 17
2 0 19
2 19 1
2 7 20
2 20 6
2 19 20
2 20 17
2 19 16
2 4 21
2 21 3
2 14 22
2 22 13
2 21 20
2 17 22
2 21 22
2 5 23
2 23 18
2 23 22
2 2 24
2 15 25
2 24 21
2 22 25
2 24 25

CELL_TYPES 49
3 
3 
3 
3 
3 
3 
3 
3 
3 
3 
3 
3 
3 
3 
3 
3 
3 
3 
3 
3 
3 
3 
3 
3 
3 
3 
3 
3 
3 
3 
3 
3 
3 
3 
3 
3 
3 
3 
3 
3 
3 
3 
3 
3 
3 
3 
3 
3 
3 
POINT_DATA 26
SCALARS GMDS_ID int 1
LOOKUP_TABLE default
0 1 3 8 9 10 12 13 14 16 17 18 19 20 21 23 24 25 26 28 29 30 31 32 33 34 
SCALARS geom_link_dim int 1
LOOKUP_TABLE default
1 0 1 1 2 1 1 2 1 1 1 1 0 1 1 1 1 1 1 1 1 1 1 1 1 1 
SCALARS geom_link_id int 1
LOOKUP_TABLE default
5 -1 6 16 17 8 17 17 2 21 1 7 -1 22 9 10 13 4 3 19 18 15 12 11 14 20 


CELL_DATA 49
SCALARS GMDS_ID int 1
LOOKUP_TABLE default
1 3 5 7 10 11 13 14 15 17 21 23 24 31 32 34 37 39 40 42 43 45 46 49 52 54 55 58 59 60 61 62 63 64 65 66 67 68 69 70 71 72 74 75 76 78 80 81 82 

SCALARS geom_link_dim int 1
LOOKUP_TABLE default
2 2 2 0 2 0 2 2 0 2 2 2 2 2 2 0 2 0 2 0 2 0 2 2 2 2 2 2 0 0 2 2 0 2 0 2 2 2 0 2 2 2 2 2 2 2 2 2 2 

SCALARS geom_link_id int 1
LOOKUP_TABLE default
17 17 13 0 34 0 36 17 0 8 5 24 31 15 27 0 6 0 35 0 29 0 21 30 22 9 14 10 0 0 12 23 0 20 0 7 2 28 0 4 3 26 33 18 11 32 16 19 25 

