# vtk DataFile Version 3.0
Generated by GMDS VTK Writer

ASCII
DATASET UNSTRUCTURED_GRID
POINTS 30 float
-5 0 0
-5 10 0
10 10 0
10 0 0
5 5 0
5 5 5
5 10 5
10 0 10
-5 0 5
10 0 5
10 10 5
-5 10 5
-5 5 0
10 5 0
10 5 5
-5 5 5
10 5 10
5 0 5
-8.88178419700125e-16 0 0
0 0 5
0 5 5
0 5 0
0 10 5
0 10 0
0 0 10
0 5 10
5 0 0
5 10 0
5 0 10
5 5 10

CELLS 59 177
2 6 10
2 15 20
2 28 7
2 0 18
2 27 2
2 6 27
2 13 2
2 3 13
2 0 12
2 12 1
2 0 8
2 17 5
2 3 9
2 9 7
2 2 10
2 22 6
2 1 11
2 20 5
2 25 29
2 8 19
2 23 27
2 9 14
2 14 10
2 8 15
2 15 11
2 4 27
2 13 14
2 24 28
2 12 15
2 7 16
2 5 4
2 4 13
2 18 26
2 16 14
2 5 6
2 21 4
2 12 21
2 18 19
2 19 20
2 21 20
2 18 21
2 11 22
2 1 23
2 22 20
2 23 22
2 23 21
2 26 17
2 26 3
2 24 19
2 20 25
2 24 25
2 19 17
2 26 4
2 5 14
2 17 9
2 29 16
2 17 28
2 5 29
2 28 29

CELL_TYPES 59
3 
3 
3 
3 
3 
3 
3 
3 
3 
3 
3 
3 
3 
3 
3 
3 
3 
3 
3 
3 
3 
3 
3 
3 
3 
3 
3 
3 
3 
3 
3 
3 
3 
3 
3 
3 
3 
3 
3 
3 
3 
3 
3 
3 
3 
3 
3 
3 
3 
3 
3 
3 
3 
3 
3 
3 
3 
3 
3 
POINT_DATA 30
SCALARS GMDS_ID int 1
LOOKUP_TABLE default
0 1 2 3 4 5 6 7 8 9 10 11 12 13 14 15 16 17 18 19 20 21 22 23 24 25 26 27 28 29 
SCALARS geom_link_dim int 1
LOOKUP_TABLE default
1 0 0 1 1 1 1 0 1 1 0 0 1 1 1 1 0 1 2 1 1 1 1 1 1 1 2 1 1 1 
SCALARS geom_link_id int 1
LOOKUP_TABLE default
5 -1 -1 6 15 12 22 -1 7 10 -1 -1 19 14 20 13 -1 9 17 1 4 18 21 17 2 3 17 16 8 11 


CELL_DATA 59
SCALARS GMDS_ID int 1
LOOKUP_TABLE default
1 2 3 4 5 7 8 9 10 11 12 13 14 15 16 17 18 19 20 21 22 24 25 26 27 28 29 30 31 32 33 34 35 36 37 38 39 41 42 43 44 45 47 49 50 51 52 54 56 57 58 59 60 61 62 63 64 65 66 

SCALARS geom_link_dim int 1
LOOKUP_TABLE default
0 2 0 2 0 2 0 2 2 0 2 0 2 0 0 2 0 2 2 2 2 2 0 2 0 2 2 2 2 0 0 2 2 0 2 0 2 0 2 0 0 0 0 2 2 2 0 2 2 2 2 0 0 2 2 0 2 2 2 

SCALARS geom_link_id int 1
LOOKUP_TABLE default
-1 9 -1 17 -1 35 0 11 10 0 27 -1 30 0 0 21 0 4 33 6 13 32 0 34 0 7 25 31 20 0 -1 16 17 0 28 -1 23 0 5 0 0 0 0 24 36 12 -1 17 8 14 15 -1 -1 19 22 -1 29 18 26 

