# vtk DataFile Version 3.0
Generated by GMDS VTK Writer

ASCII
DATASET UNSTRUCTURED_GRID
POINTS 28 float
-5 0 0
10 5 5
10 0 0
-5 10 10
10 0 5
0 5 0
-5 5 0
-5 5 10
8.88178419700125e-16 0 0
10 5 0
5 0 0
5 0 10
5 5 10
5 5 0
5 10 0
5 5 5
5 0 5
-5 5 5
-5 0 5
5 10 5
-5 10 5
0 5 5
0 0 5
0 5 10
0 0 10
0 10 0
0 10 5
8.88178419700125e-16 10 10

CELLS 53 159
2 15 12
2 0 8
2 16 15
2 10 16
2 2 10
2 1 15
2 7 23
2 21 15
2 9 1
2 22 16
2 0 6
2 7 3
2 17 21
2 13 15
2 2 9
2 2 4
2 21 22
2 16 11
2 8 5
2 4 1
2 6 5
2 9 13
2 8 22
2 11 12
2 5 21
2 10 13
2 5 13
2 8 10
2 18 22
2 14 13
2 4 16
2 6 17
2 17 7
2 0 18
2 18 17
2 14 19
2 20 3
2 15 19
2 20 17
2 23 12
2 24 11
2 23 21
2 24 23
2 24 22
2 25 14
2 20 26
2 26 19
2 25 5
2 21 26
2 25 26
2 3 27
2 27 23
2 27 26

CELL_TYPES 53
3 
3 
3 
3 
3 
3 
3 
3 
3 
3 
3 
3 
3 
3 
3 
3 
3 
3 
3 
3 
3 
3 
3 
3 
3 
3 
3 
3 
3 
3 
3 
3 
3 
3 
3 
3 
3 
3 
3 
3 
3 
3 
3 
3 
3 
3 
3 
3 
3 
3 
3 
3 
3 
POINT_DATA 28
SCALARS GMDS_ID int 1
LOOKUP_TABLE default
0 2 3 5 6 7 8 9 10 11 12 13 14 15 17 18 19 20 21 22 23 24 25 26 27 28 29 30 
SCALARS geom_link_dim int 1
LOOKUP_TABLE default
1 1 1 0 1 1 1 0 2 1 2 1 1 1 1 1 1 1 1 1 0 1 1 1 1 1 1 0 
SCALARS geom_link_id int 1
LOOKUP_TABLE default
5 20 6 -1 10 18 19 -1 17 14 17 8 11 15 16 12 9 13 7 22 -1 4 1 3 2 17 21 -1 


CELL_DATA 53
SCALARS GMDS_ID int 1
LOOKUP_TABLE default
1 2 3 5 6 7 8 9 10 11 12 15 16 17 18 19 20 21 22 23 24 26 28 29 30 31 32 34 37 38 39 40 41 42 45 47 50 51 52 54 56 57 58 59 61 62 63 64 65 66 67 69 70 

SCALARS geom_link_dim int 1
LOOKUP_TABLE default
2 2 2 3 2 2 0 2 2 3 2 0 2 2 2 2 2 2 3 2 2 2 3 2 2 3 3 2 2 2 2 2 0 2 2 2 0 2 0 2 2 2 2 2 2 0 2 2 2 2 0 0 0 

SCALARS geom_link_id int 1
LOOKUP_TABLE default
18 17 2 2 17 19 0 4 25 2 10 0 9 3 11 30 5 29 1 32 23 16 2 26 1 1 1 17 6 7 22 20 0 27 34 35 0 28 0 33 31 14 15 8 13 0 21 12 24 36 0 0 0 

