# vtk DataFile Version 3.0
Generated by GMDS VTK Writer

ASCII
DATASET UNSTRUCTURED_GRID
POINTS 24 float
-5 0 0
10 0 0
5 10 0
5 0 0
5 0 10
0 10 0
8.88178419700125e-16 0 0
0 0 10
0 10 5
0 0 5
-5 0 5
5 10 5
5 0 5
10 0 5
-5 5 5
0 5 5
0 5 10
-5 5 0
0 5 0
5 5 0
5 5 5
5 5 10
10 5 0
10 5 5

CELLS 44 132
2 3 6
2 6 0
2 2 5
2 10 14
2 5 8
2 1 3
2 6 9
2 9 7
2 9 15
2 15 8
2 4 7
2 7 16
2 0 10
2 10 9
2 2 11
2 3 12
2 12 4
2 12 9
2 11 8
2 1 13
2 13 12
2 15 14
2 16 15
2 0 17
2 6 18
2 18 5
2 17 18
2 18 15
2 17 14
2 3 19
2 19 2
2 12 20
2 20 11
2 19 18
2 15 20
2 19 20
2 4 21
2 21 16
2 21 20
2 1 22
2 13 23
2 22 19
2 20 23
2 22 23

CELL_TYPES 44
3 
3 
3 
3 
3 
3 
3 
3 
3 
3 
3 
3 
3 
3 
3 
3 
3 
3 
3 
3 
3 
3 
3 
3 
3 
3 
3 
3 
3 
3 
3 
3 
3 
3 
3 
3 
3 
3 
3 
3 
3 
3 
3 
3 
POINT_DATA 24
SCALARS GMDS_ID int 1
LOOKUP_TABLE default
0 3 8 9 10 12 13 14 16 17 18 20 21 23 24 25 26 28 29 30 31 32 33 34 
SCALARS geom_link_dim int 1
LOOKUP_TABLE default
1 1 1 2 1 1 2 1 1 1 1 1 1 1 1 1 1 1 1 1 1 1 1 1 
SCALARS geom_link_id int 1
LOOKUP_TABLE default
5 6 16 17 8 17 17 2 21 1 7 22 9 10 13 4 3 19 18 15 12 11 14 20 


CELL_DATA 44
SCALARS GMDS_ID int 1
LOOKUP_TABLE default
1 3 5 10 13 14 15 17 21 23 24 31 32 37 40 42 43 45 46 49 52 54 55 58 60 61 62 63 64 65 66 67 68 69 70 71 72 74 75 76 78 80 81 82 

SCALARS geom_link_dim int 1
LOOKUP_TABLE default
2 2 2 2 2 2 3 2 2 2 2 2 2 2 2 3 2 3 2 2 2 2 2 2 3 2 2 2 2 3 2 2 2 3 2 2 2 2 2 2 2 2 2 2 

SCALARS geom_link_id int 1
LOOKUP_TABLE default
17 17 13 34 36 17 2 8 5 24 31 15 27 6 35 2 29 2 21 30 22 9 14 10 1 12 23 1 20 1 7 2 28 1 4 3 26 33 18 11 32 16 19 25 

