# vtk DataFile Version 3.0
Generated by GMDS VTK Writer

ASCII
DATASET UNSTRUCTURED_GRID
POINTS 22 float
-5 0 0
-5 10 0
10 10 0
10 0 0
10 0 10
-5 0 5
10 0 5
10 10 5
-5 10 5
-5 5 0
10 5 0
10 5 5
-5 5 5
10 5 10
-8.88178419700125e-16 0 0
0 0 5
0 5 5
0 5 0
0 10 5
0 10 0
0 0 10
0 5 10

CELLS 41 123
2 16 11
2 12 16
2 0 14
2 14 3
2 10 2
2 3 10
2 0 9
2 9 1
2 0 5
2 3 6
2 6 4
2 2 7
2 1 8
2 5 15
2 15 6
2 6 11
2 11 7
2 5 12
2 12 8
2 10 11
2 9 12
2 4 13
2 13 11
2 9 17
2 17 10
2 14 15
2 15 16
2 17 16
2 14 17
2 8 18
2 18 7
2 1 19
2 19 2
2 18 16
2 19 18
2 19 17
2 20 4
2 21 13
2 20 15
2 16 21
2 20 21

CELL_TYPES 41
3 
3 
3 
3 
3 
3 
3 
3 
3 
3 
3 
3 
3 
3 
3 
3 
3 
3 
3 
3 
3 
3 
3 
3 
3 
3 
3 
3 
3 
3 
3 
3 
3 
3 
3 
3 
3 
3 
3 
3 
3 
POINT_DATA 22
SCALARS GMDS_ID int 1
LOOKUP_TABLE default
0 1 2 3 7 8 9 10 11 12 13 14 15 16 18 19 20 21 22 23 24 25 
SCALARS geom_link_dim int 1
LOOKUP_TABLE default
1 0 0 1 0 1 1 0 0 1 1 1 1 0 2 1 1 1 1 1 1 1 
SCALARS geom_link_id int 1
LOOKUP_TABLE default
5 -1 -1 6 -1 7 10 -1 -1 19 14 20 13 -1 17 1 4 18 21 17 2 3 


CELL_DATA 41
SCALARS GMDS_ID int 1
LOOKUP_TABLE default
0 2 4 6 8 9 10 11 12 14 15 16 18 21 23 24 25 26 27 29 31 32 36 39 40 41 42 43 44 45 46 47 48 49 50 51 53 55 56 57 58 

SCALARS geom_link_dim int 1
LOOKUP_TABLE default
0 2 2 2 0 2 2 0 2 2 0 0 0 2 0 2 0 2 0 2 2 0 0 2 0 0 2 0 0 0 0 0 0 2 2 2 0 0 2 2 2 

SCALARS geom_link_id int 1
LOOKUP_TABLE default
0 9 17 17 0 11 10 0 27 30 0 0 0 6 0 32 0 34 0 25 20 0 0 23 0 0 5 0 0 0 0 0 0 24 36 12 0 0 8 14 15 

