# vtk DataFile Version 3.0
Generated by GMDS VTK Writer

ASCII
DATASET UNSTRUCTURED_GRID
POINTS 24 float
-5 0 0
10 5 5
10 0 0
10 0 5
0 5 0
-5 5 0
8.88178419700125e-16 0 0
10 5 0
5 0 0
5 0 10
5 5 10
5 5 0
5 10 0
5 5 5
5 0 5
-5 5 5
-5 0 5
5 10 5
0 5 5
0 0 5
0 5 10
0 0 10
0 10 0
0 10 5

CELLS 44 132
2 13 10
2 0 6
2 14 13
2 8 14
2 2 8
2 1 13
2 18 13
2 7 1
2 19 14
2 0 5
2 15 18
2 11 13
2 2 7
2 2 3
2 18 19
2 14 9
2 6 4
2 3 1
2 5 4
2 7 11
2 6 19
2 9 10
2 4 18
2 8 11
2 4 11
2 6 8
2 16 19
2 12 11
2 3 14
2 5 15
2 0 16
2 16 15
2 12 17
2 13 17
2 20 10
2 21 9
2 20 18
2 21 20
2 21 19
2 22 12
2 23 17
2 22 4
2 18 23
2 22 23

CELL_TYPES 44
3 
3 
3 
3 
3 
3 
3 
3 
3 
3 
3 
3 
3 
3 
3 
3 
3 
3 
3 
3 
3 
3 
3 
3 
3 
3 
3 
3 
3 
3 
3 
3 
3 
3 
3 
3 
3 
3 
3 
3 
3 
3 
3 
3 
POINT_DATA 24
SCALARS GMDS_ID int 1
LOOKUP_TABLE default
0 2 3 6 7 8 10 11 12 13 14 15 17 18 19 20 21 22 24 25 26 27 28 29 
SCALARS geom_link_dim int 1
LOOKUP_TABLE default
1 1 1 1 1 1 2 1 2 1 1 1 1 1 1 1 1 1 1 1 1 1 1 1 
SCALARS geom_link_id int 1
LOOKUP_TABLE default
5 20 6 10 18 19 17 14 17 8 11 15 16 12 9 13 7 22 4 1 3 2 17 21 


CELL_DATA 44
SCALARS GMDS_ID int 1
LOOKUP_TABLE default
1 2 3 5 6 7 9 10 11 12 16 17 18 19 20 21 22 23 24 26 28 29 30 31 32 34 37 38 39 40 42 45 47 51 54 56 57 58 59 61 63 64 65 66 

SCALARS geom_link_dim int 1
LOOKUP_TABLE default
2 2 2 3 2 2 2 2 3 2 2 2 2 2 2 2 3 2 2 2 3 2 2 3 3 2 2 2 2 2 2 2 2 2 2 2 2 2 2 2 2 2 2 2 

SCALARS geom_link_id int 1
LOOKUP_TABLE default
18 17 2 2 17 19 4 25 2 10 9 3 11 30 5 29 1 32 23 16 2 26 1 1 1 17 6 7 22 20 27 34 35 28 33 31 14 15 8 13 21 12 24 36 

