# vtk DataFile Version 3.0
Generated by GMDS VTK Writer

ASCII
DATASET UNSTRUCTURED_GRID
POINTS 28 float
-5 0 0
-5 10 0
10 0 0
5 5 5
10 5 5
5 10 0
5 0 0
5 0 10
5 10 10
10 0 5
5 0 5
5 10 5
-5 0 5
-5 10 5
8.88178419700125e-16 0 0
0 10 0
0 10 5
0 0 5
8.88178419700125e-16 10 10
0 0 10
5 5 10
-5 5 0
-5 5 5
0 5 5
0 5 0
10 5 0
5 5 0
0 5 10

CELLS 54 162
2 2 9
2 10 3
2 16 11
2 15 5
2 14 6
2 0 14
2 2 6
2 20 3
2 20 8
2 13 16
2 1 15
2 6 10
2 10 7
2 5 11
2 11 8
2 9 10
2 0 12
2 9 4
2 1 13
2 7 20
2 4 3
2 12 17
2 17 10
2 15 16
2 14 17
2 3 11
2 18 8
2 19 7
2 18 16
2 19 17
2 0 21
2 21 1
2 12 22
2 22 13
2 17 23
2 23 16
2 14 24
2 24 15
2 21 22
2 22 23
2 24 23
2 21 24
2 2 25
2 6 26
2 26 5
2 25 26
2 26 3
2 25 4
2 3 23
2 26 24
2 19 27
2 27 18
2 23 27
2 20 27

CELL_TYPES 54
3 
3 
3 
3 
3 
3 
3 
3 
3 
3 
3 
3 
3 
3 
3 
3 
3 
3 
3 
3 
3 
3 
3 
3 
3 
3 
3 
3 
3 
3 
3 
3 
3 
3 
3 
3 
3 
3 
3 
3 
3 
3 
3 
3 
3 
3 
3 
3 
3 
3 
3 
3 
3 
3 
POINT_DATA 28
SCALARS GMDS_ID int 1
LOOKUP_TABLE default
0 1 3 4 5 8 9 10 11 13 14 15 16 17 18 19 20 21 22 23 24 26 27 28 29 30 31 32 
SCALARS geom_link_dim int 1
LOOKUP_TABLE default
1 0 1 1 1 1 2 1 0 1 1 1 1 0 2 1 1 1 0 1 1 1 1 1 1 1 1 1 
SCALARS geom_link_id int 1
LOOKUP_TABLE default
5 -1 6 12 20 16 17 8 -1 10 9 22 7 -1 17 17 21 1 -1 2 11 19 13 4 18 14 15 3 


CELL_DATA 54
SCALARS GMDS_ID int 1
LOOKUP_TABLE default
1 4 8 9 10 11 14 15 19 21 23 24 25 26 27 29 32 33 34 35 38 39 40 42 44 45 46 48 49 51 53 54 55 56 57 58 59 60 61 62 63 64 65 67 68 69 70 71 72 73 74 75 76 77 

SCALARS geom_link_dim int 1
LOOKUP_TABLE default
2 2 2 2 2 2 2 2 0 0 0 0 2 2 0 2 2 2 0 2 2 2 0 2 0 2 0 2 0 2 2 0 2 0 2 2 0 2 2 2 0 2 2 0 2 2 2 2 0 0 2 0 2 2 

SCALARS geom_link_id int 1
LOOKUP_TABLE default
30 2 21 13 17 17 17 18 0 0 0 0 29 35 0 22 27 32 0 26 19 6 0 36 0 28 0 31 0 8 10 0 34 0 5 24 0 12 20 9 0 23 11 0 7 16 3 25 0 0 15 0 14 33 

