# vtk DataFile Version 3.0
Generated by GMDS VTK Writer

ASCII
DATASET UNSTRUCTURED_GRID
POINTS 30 float
-5 0 0
10 0 0
-5 0 10
10 10 10
0 10 0
8.88178419700125e-16 0 0
0 0 10
10 5 0
10 5 10
0 5 10
0 5 0
-5 5 10
-5 5 0
5 5 0
5 5 10
5 10 10
5 10 0
5 0 0
5 0 10
10 10 5
10 5 5
5 5 5
5 10 5
-5 0 5
0 0 5
0 5 5
-5 5 5
0 10 5
10 0 5
5 0 5

CELLS 58 174
2 7 13
2 8 3
2 14 9
2 1 7
2 13 10
2 19 3
2 13 21
2 5 0
2 21 14
2 6 2
2 3 15
2 8 14
2 6 9
2 5 10
2 10 4
2 20 8
2 7 20
2 2 11
2 0 12
2 11 9
2 12 10
2 16 4
2 15 14
2 16 13
2 1 17
2 17 5
2 18 6
2 18 14
2 17 13
2 16 22
2 22 15
2 19 20
2 20 21
2 21 22
2 19 22
2 0 23
2 23 2
2 5 24
2 24 6
2 10 25
2 25 9
2 12 26
2 26 11
2 23 24
2 24 25
2 25 26
2 23 26
2 4 27
2 27 25
2 25 21
2 27 22
2 1 28
2 17 29
2 29 18
2 28 20
2 21 29
2 28 29
2 24 29

CELL_TYPES 58
3 
3 
3 
3 
3 
3 
3 
3 
3 
3 
3 
3 
3 
3 
3 
3 
3 
3 
3 
3 
3 
3 
3 
3 
3 
3 
3 
3 
3 
3 
3 
3 
3 
3 
3 
3 
3 
3 
3 
3 
3 
3 
3 
3 
3 
3 
3 
3 
3 
3 
3 
3 
3 
3 
3 
3 
3 
3 
POINT_DATA 30
SCALARS GMDS_ID int 1
LOOKUP_TABLE default
0 3 4 6 8 9 10 12 13 14 15 16 17 18 19 20 21 22 23 24 25 26 27 28 29 30 31 32 34 35 
SCALARS geom_link_dim_0 int 1
LOOKUP_TABLE default
0 0 0 0 0 0 0 0 0 0 0 0 0 0 0 0 0 0 0 0 0 0 0 0 0 0 0 0 0 0 
SCALARS geom_link_id_0 int 1
LOOKUP_TABLE default
0 0 0 0 0 0 0 0 0 0 0 0 0 0 0 0 0 0 0 0 0 0 0 0 0 0 0 0 0 0 


CELL_DATA 58
SCALARS GMDS_ID int 1
LOOKUP_TABLE default
2 3 4 5 6 12 14 15 16 17 20 22 24 26 27 29 31 32 34 36 38 40 42 44 45 46 48 50 51 52 53 54 55 56 57 58 59 60 61 62 63 64 65 66 67 68 69 70 74 77 78 79 81 82 83 84 85 86 

SCALARS geom_link_dim_0 int 1
LOOKUP_TABLE default
0 0 0 0 0 0 0 0 0 0 0 0 0 0 0 0 0 0 0 0 0 0 0 0 0 0 0 0 0 0 0 0 0 0 0 0 0 0 0 0 0 0 0 0 0 0 0 0 0 0 0 0 0 0 0 0 0 0 

SCALARS geom_link_id_0 int 1
LOOKUP_TABLE default
0 0 0 0 0 0 0 0 0 0 0 0 0 0 0 0 0 0 0 0 0 0 0 0 0 0 0 0 0 0 0 0 0 0 0 0 0 0 0 0 0 0 0 0 0 0 0 0 0 0 0 0 0 0 0 0 0 0 

