# vtk DataFile Version 3.0
Generated by GMDS VTK Writer

ASCII
DATASET UNSTRUCTURED_GRID
POINTS 24 float
-5 0 0
10 0 0
5 5 0
5 5 5
5 10 5
-5 0 5
10 0 5
-5 5 0
10 5 0
10 5 5
-5 5 5
5 0 5
-8.88178419700125e-16 0 0
0 0 5
0 5 5
0 5 0
0 10 5
0 10 0
0 0 10
0 5 10
5 0 0
5 10 0
5 0 10
5 5 10

CELLS 26 130
4 0 7 15 12 
4 1 6 9 8 
4 22 11 3 23 
4 18 19 23 22 
4 7 10 14 15 
4 14 19 23 3 
4 5 10 14 13 
4 0 5 13 12 
4 13 18 22 11 
4 2 3 4 21 
4 0 5 10 7 
4 15 17 21 2 
4 20 2 8 1 
4 14 15 2 3 
4 16 17 21 4 
4 12 13 14 15 
4 15 14 16 17 
4 12 15 2 20 
4 13 14 3 11 
4 3 2 8 9 
4 18 13 14 19 
4 20 11 6 1 
4 14 16 4 3 
4 12 13 11 20 
4 20 11 3 2 
4 11 3 9 6 

CELL_TYPES 26
9 
9 
9 
9 
9 
9 
9 
9 
9 
9 
9 
9 
9 
9 
9 
9 
9 
9 
9 
9 
9 
9 
9 
9 
9 
9 
POINT_DATA 24
SCALARS GMDS_ID int 1
LOOKUP_TABLE default
0 3 4 5 6 8 9 12 13 14 15 17 18 19 20 21 22 23 24 25 26 27 28 29 
SCALARS geom_link_dim int 1
LOOKUP_TABLE default
1 1 1 1 1 1 1 1 1 1 1 1 2 1 1 1 1 1 1 1 2 1 1 1 
SCALARS geom_link_id int 1
LOOKUP_TABLE default
5 6 15 12 22 7 10 19 14 20 13 9 17 1 4 18 21 17 2 3 17 16 8 11 


CELL_DATA 26
SCALARS GMDS_ID int 1
LOOKUP_TABLE default
0 2 3 6 8 10 12 14 15 16 17 22 24 25 26 28 35 36 38 40 42 43 44 45 46 47 

SCALARS geom_link_dim int 1
LOOKUP_TABLE default
3 3 3 3 3 3 3 3 3 3 3 3 3 4 3 4 3 3 4 3 3 3 3 3 4 3 

SCALARS geom_link_id int 1
LOOKUP_TABLE default
1 14 11 8 5 13 12 2 2 4 7 1 1 1 3 1 6 1 1 10 16 2 9 2 1 15 

