# vtk DataFile Version 3.0
Generated by GMDS VTK Writer

ASCII
DATASET UNSTRUCTURED_GRID
POINTS 26 float
-5 0 0
10 0 0
-5 0 5
10 0 5
-8.88178419700125e-16 0 0
0 10 0
0 10 5
0 0 5
-8.88178419700125e-16 10 10
0 0 10
5 0 0
5 10 0
5 10 5
5 0 5
5 10 10
5 0 10
0 5 0
0 5 5
5 5 5
5 5 0
-5 5 0
-5 5 5
0 5 10
10 5 5
10 5 0
5 5 10

CELLS 30 150
4 4 7 13 10 
4 4 10 19 16 
4 19 18 12 11 
4 5 6 12 11 
4 10 13 18 19 
4 0 2 7 4 
4 17 18 12 6 
4 7 13 18 17 
4 16 17 6 5 
4 4 7 17 16 
4 10 13 3 1 
4 6 8 14 12 
4 7 9 15 13 
4 16 19 11 5 
4 16 17 18 19 
4 0 2 21 20 
4 2 7 17 21 
4 0 4 16 20 
4 20 21 17 16 
4 7 9 22 17 
4 17 22 8 6 
4 3 13 18 23 
4 1 3 23 24 
4 1 10 19 24 
4 19 18 23 24 
4 9 15 25 22 
4 22 25 14 8 
4 13 15 25 18 
4 18 25 14 12 
4 17 22 25 18 

CELL_TYPES 30
9 
9 
9 
9 
9 
9 
9 
9 
9 
9 
9 
9 
9 
9 
9 
9 
9 
9 
9 
9 
9 
9 
9 
9 
9 
9 
9 
9 
9 
9 
POINT_DATA 26
SCALARS GMDS_ID int 1
LOOKUP_TABLE default
0 3 8 9 12 13 14 15 16 17 18 19 20 21 22 23 24 25 26 27 28 29 31 32 33 34 
SCALARS geom_link_dim_0 int 1
LOOKUP_TABLE default
0 0 0 0 0 0 0 0 0 0 0 0 0 0 0 0 0 0 0 0 0 0 0 0 0 0 
SCALARS geom_link_id_0 int 1
LOOKUP_TABLE default
0 0 0 0 0 0 0 0 0 0 0 0 0 0 0 0 0 0 0 0 0 0 0 0 0 0 


CELL_DATA 30
SCALARS GMDS_ID int 1
LOOKUP_TABLE default
0 1 3 10 16 17 18 21 23 25 27 29 33 36 37 38 40 42 44 47 48 52 54 56 58 59 60 61 62 63 

SCALARS geom_link_dim_0 int 1
LOOKUP_TABLE default
0 0 0 0 0 0 0 0 0 0 0 0 0 0 0 0 0 0 0 0 0 0 0 0 0 0 0 0 0 0 

SCALARS geom_link_id_0 int 1
LOOKUP_TABLE default
0 0 0 0 0 0 0 0 0 0 0 0 0 0 0 0 0 0 0 0 0 0 0 0 0 0 0 0 0 0 

