# vtk DataFile Version 3.0
Generated by GMDS VTK Writer

ASCII
DATASET UNSTRUCTURED_GRID
POINTS 24 float
-5 0 0
-5 10 0
10 10 0
10 0 0
-5 0 10
-5 10 10
10 10 10
10 0 10
5 10 0
5 0 0
5 0 10
5 10 10
0 10 0
8.88178419700125e-16 0 0
0 0 10
8.88178419700125e-16 10 10
0 10 5
0 0 5
-5 0 5
-5 10 5
5 10 5
5 0 5
10 10 5
10 0 5

CELLS 29 145
4 12 13 0 1 
4 8 9 13 12 
4 2 3 9 8 
4 18 17 14 4 
4 0 13 17 18 
4 6 7 10 11 
4 16 17 14 15 
4 12 13 17 16 
4 10 11 15 14 
4 14 15 5 4 
4 0 1 19 18 
4 18 19 5 4 
4 1 12 16 19 
4 19 16 15 5 
4 16 17 18 19 
4 8 9 21 20 
4 20 21 10 11 
4 9 13 17 21 
4 21 17 14 10 
4 8 12 16 20 
4 20 16 15 11 
4 20 21 17 16 
4 2 3 23 22 
4 22 23 7 6 
4 3 9 21 23 
4 23 21 10 7 
4 2 8 20 22 
4 22 20 11 6 
4 22 23 21 20 

CELL_TYPES 29
9 
9 
9 
9 
9 
9 
9 
9 
9 
9 
9 
9 
9 
9 
9 
9 
9 
9 
9 
9 
9 
9 
9 
9 
9 
9 
9 
9 
9 
POINT_DATA 24
SCALARS GMDS_ID int 1
LOOKUP_TABLE default
0 1 2 3 4 5 6 7 8 9 10 11 12 13 14 15 16 17 18 19 20 21 22 23 
SCALARS geom_link_dim int 1
LOOKUP_TABLE default
1 0 0 1 0 0 0 0 1 2 1 0 1 2 1 0 1 1 1 0 1 1 0 1 
SCALARS geom_link_id int 1
LOOKUP_TABLE default
5 -1 -1 6 -1 -1 -1 -1 16 17 8 -1 17 17 2 -1 21 1 7 -1 22 9 -1 10 


CELL_DATA 29
SCALARS GMDS_ID int 1
LOOKUP_TABLE default
4 5 6 7 9 10 11 13 15 16 20 21 22 23 24 25 26 27 28 29 30 31 32 33 34 35 36 37 38 

SCALARS geom_link_dim int 1
LOOKUP_TABLE default
0 0 0 0 0 0 0 0 0 0 0 0 0 0 0 0 0 0 0 0 0 0 0 0 0 0 0 0 0 

SCALARS geom_link_id int 1
LOOKUP_TABLE default
0 0 0 -1 -1 0 -1 -1 0 0 -1 -1 -1 -1 -1 -1 -1 -1 -1 -1 -1 -1 -1 -1 -1 -1 -1 -1 -1 

