# vtk DataFile Version 3.0
Generated by GMDS VTK Writer

ASCII
DATASET UNSTRUCTURED_GRID
POINTS 24 float
-5 0 0
-5 10 0
10 10 0
10 0 0
-5 0 10
-5 10 10
10 10 10
10 0 10
0 10 0
8.88178419700125e-16 0 0
0 0 10
8.88178419700125e-16 10 10
10 5 0
10 5 10
0 5 10
0 5 0
-5 5 10
-5 5 0
5 5 0
5 5 10
5 10 10
5 10 0
5 0 0
5 0 10

CELLS 29 145
4 2 12 18 21 
4 21 20 11 8 
4 12 13 6 2 
4 3 7 13 12 
4 2 6 20 21 
4 20 19 14 11 
4 9 10 4 0 
4 6 13 19 20 
4 18 19 14 15 
4 8 11 5 1 
4 12 13 19 18 
4 9 10 14 15 
4 15 14 11 8 
4 4 10 14 16 
4 16 14 11 5 
4 0 4 16 17 
4 17 16 5 1 
4 0 9 15 17 
4 17 15 8 1 
4 15 14 16 17 
4 21 18 15 8 
4 18 19 20 21 
4 3 7 23 22 
4 22 23 10 9 
4 7 13 19 23 
4 23 19 14 10 
4 3 12 18 22 
4 22 18 15 9 
4 22 23 19 18 

CELL_TYPES 29
9 
9 
9 
9 
9 
9 
9 
9 
9 
9 
9 
9 
9 
9 
9 
9 
9 
9 
9 
9 
9 
9 
9 
9 
9 
9 
9 
9 
9 
POINT_DATA 24
SCALARS GMDS_ID int 1
LOOKUP_TABLE default
0 1 2 3 4 5 6 7 8 9 10 11 12 13 14 15 16 17 18 19 20 21 22 23 
SCALARS geom_link_dim_0 int 1
LOOKUP_TABLE default
0 0 0 0 0 0 0 0 0 0 0 0 0 0 0 0 0 0 0 0 0 0 0 0 
SCALARS geom_link_id_0 int 1
LOOKUP_TABLE default
0 0 0 0 0 0 0 0 0 0 0 0 0 0 0 0 0 0 0 0 0 0 0 0 


CELL_DATA 29
SCALARS GMDS_ID int 1
LOOKUP_TABLE default
1 3 4 5 6 7 9 10 11 13 14 15 16 20 21 22 23 24 25 26 27 28 29 30 31 32 33 34 35 

SCALARS geom_link_dim_0 int 1
LOOKUP_TABLE default
0 0 0 0 0 0 0 0 0 0 0 0 0 0 0 0 0 0 0 0 0 0 0 0 0 0 0 0 0 

SCALARS geom_link_id_0 int 1
LOOKUP_TABLE default
0 0 0 0 0 0 0 0 0 0 0 0 0 0 0 0 0 0 0 0 0 0 0 0 0 0 0 0 0 

