# vtk DataFile Version 3.0
Generated by GMDS VTK Writer

ASCII
DATASET UNSTRUCTURED_GRID
POINTS 28 float
-5 0 0
10 0 0
10 0 10
-5 0 5
10 0 5
-8.88178419700125e-16 0 0
0 10 0
0 10 5
0 0 5
-8.88178419700125e-16 10 10
0 0 10
5 0 0
5 10 0
5 10 5
5 0 5
5 10 10
5 0 10
0 5 0
0 5 5
5 5 5
5 5 0
-5 5 0
-5 5 5
0 5 10
10 5 5
10 5 0
5 5 10
10 5 10

CELLS 34 170
4 5 8 14 11 
4 5 11 20 17 
4 20 19 13 12 
4 6 7 13 12 
4 11 14 19 20 
4 0 3 8 5 
4 18 19 13 7 
4 8 14 19 18 
4 17 18 7 6 
4 5 8 18 17 
4 11 14 4 1 
4 7 9 15 13 
4 8 10 16 14 
4 14 16 2 4 
4 17 20 12 6 
4 17 18 19 20 
4 0 3 22 21 
4 3 8 18 22 
4 0 5 17 21 
4 21 22 18 17 
4 8 10 23 18 
4 18 23 9 7 
4 4 14 19 24 
4 1 4 24 25 
4 1 11 20 25 
4 20 19 24 25 
4 10 16 26 23 
4 23 26 15 9 
4 14 16 26 19 
4 19 26 15 13 
4 18 23 26 19 
4 2 16 26 27 
4 2 4 24 27 
4 19 26 27 24 

CELL_TYPES 34
9 
9 
9 
9 
9 
9 
9 
9 
9 
9 
9 
9 
9 
9 
9 
9 
9 
9 
9 
9 
9 
9 
9 
9 
9 
9 
9 
9 
9 
9 
9 
9 
9 
9 
POINT_DATA 28
SCALARS GMDS_ID int 1
LOOKUP_TABLE default
0 3 7 8 9 12 13 14 15 16 17 18 19 20 21 22 23 24 25 26 27 28 29 31 32 33 34 35 
SCALARS geom_link_dim_0 int 1
LOOKUP_TABLE default
0 0 0 0 0 0 0 0 0 0 0 0 0 0 0 0 0 0 0 0 0 0 0 0 0 0 0 0 
SCALARS geom_link_id_0 int 1
LOOKUP_TABLE default
0 0 0 0 0 0 0 0 0 0 0 0 0 0 0 0 0 0 0 0 0 0 0 0 0 0 0 0 


CELL_DATA 34
SCALARS GMDS_ID int 1
LOOKUP_TABLE default
0 1 3 10 16 17 18 21 23 25 27 29 33 34 36 37 38 40 42 44 47 48 52 54 56 58 59 60 61 62 63 64 66 68 

SCALARS geom_link_dim_0 int 1
LOOKUP_TABLE default
0 0 0 0 0 0 0 0 0 0 0 0 0 0 0 0 0 0 0 0 0 0 0 0 0 0 0 0 0 0 0 0 0 0 

SCALARS geom_link_id_0 int 1
LOOKUP_TABLE default
0 0 0 0 0 0 0 0 0 0 0 0 0 0 0 0 0 0 0 0 0 0 0 0 0 0 0 0 0 0 0 0 0 0 

