# vtk DataFile Version 3.0
Generated by GMDS VTK Writer

ASCII
DATASET UNSTRUCTURED_GRID
POINTS 33 float
-5 0 0
10 10 0
10 0 0
-5 0 10
10 10 10
10 0 10
-5 0 5
10 0 5
10 10 5
-8.88178419700125e-16 0 0
0 10 0
0 10 5
0 0 5
-8.88178419700125e-16 10 10
0 0 10
5 0 0
5 10 0
5 10 5
5 0 5
5 10 10
5 0 10
0 5 0
0 5 5
5 5 5
5 5 0
-5 5 0
-5 5 5
-5 5 10
0 5 10
10 5 5
10 5 0
5 5 10
10 5 10

CELLS 45 225
4 9 12 18 15 
4 9 15 24 21 
4 24 23 17 16 
4 16 17 8 1 
4 10 11 17 16 
4 15 18 23 24 
4 0 6 12 9 
4 22 23 17 11 
4 12 18 23 22 
4 21 22 11 10 
4 3 6 12 14 
4 9 12 22 21 
4 15 18 7 2 
4 11 13 19 17 
4 17 19 4 8 
4 12 14 20 18 
4 18 20 5 7 
4 21 24 16 10 
4 21 22 23 24 
4 0 6 26 25 
4 6 12 22 26 
4 0 9 21 25 
4 25 26 22 21 
4 3 6 26 27 
4 12 14 28 22 
4 22 28 13 11 
4 3 14 28 27 
4 27 26 22 28 
4 7 18 23 29 
4 29 23 17 8 
4 2 7 29 30 
4 30 29 8 1 
4 2 15 24 30 
4 30 24 16 1 
4 24 23 29 30 
4 14 20 31 28 
4 28 31 19 13 
4 18 20 31 23 
4 23 31 19 17 
4 22 28 31 23 
4 5 20 31 32 
4 32 31 19 4 
4 5 7 29 32 
4 32 29 8 4 
4 23 31 32 29 

CELL_TYPES 45
9 
9 
9 
9 
9 
9 
9 
9 
9 
9 
9 
9 
9 
9 
9 
9 
9 
9 
9 
9 
9 
9 
9 
9 
9 
9 
9 
9 
9 
9 
9 
9 
9 
9 
9 
9 
9 
9 
9 
9 
9 
9 
9 
9 
9 
POINT_DATA 33
SCALARS GMDS_ID int 1
LOOKUP_TABLE default
0 2 3 4 6 7 8 9 10 12 13 14 15 16 17 18 19 20 21 22 23 24 25 26 27 28 29 30 31 32 33 34 35 
SCALARS geom_link_dim_0 int 1
LOOKUP_TABLE default
0 0 0 0 0 0 0 0 0 0 0 0 0 0 0 0 0 0 0 0 0 0 0 0 0 0 0 0 0 0 0 0 0 
SCALARS geom_link_id_0 int 1
LOOKUP_TABLE default
0 0 0 0 0 0 0 0 0 0 0 0 0 0 0 0 0 0 0 0 0 0 0 0 0 0 0 0 0 0 0 0 0 


CELL_DATA 45
SCALARS GMDS_ID int 1
LOOKUP_TABLE default
0 1 3 7 10 16 17 18 21 23 24 25 27 29 30 33 34 36 37 38 40 42 44 45 47 48 49 51 52 53 54 55 56 57 58 59 60 61 62 63 64 65 66 67 68 

SCALARS geom_link_dim_0 int 1
LOOKUP_TABLE default
0 0 0 0 0 0 0 0 0 0 0 0 0 0 0 0 0 0 0 0 0 0 0 0 0 0 0 0 0 0 0 0 0 0 0 0 0 0 0 0 0 0 0 0 0 

SCALARS geom_link_id_0 int 1
LOOKUP_TABLE default
0 0 0 0 0 0 0 0 0 0 0 0 0 0 0 0 0 0 0 0 0 0 0 0 0 0 0 0 0 0 0 0 0 0 0 0 0 0 0 0 0 0 0 0 0 

