# vtk DataFile Version 3.0
Generated by GMDS VTK Writer

ASCII
DATASET UNSTRUCTURED_GRID
POINTS 22 float
-5 0 0
-5 10 0
10 10 0
10 0 0
-5 0 10
-5 10 10
-5 0 5
10 0 5
10 10 5
-5 10 5
5 0 0
5 10 0
5 10 5
5 0 5
5 10 10
5 0 10
-4.44089209850063e-16 0 0
0 10 0
0 10 5
0 0 5
-4.44089209850063e-16 10 10
0 0 10

CELLS 25 125
4 0 6 19 16 
4 11 12 8 2 
4 10 11 2 3 
4 19 18 12 13 
4 6 9 18 19 
4 17 18 12 11 
4 2 3 7 8 
4 1 9 18 17 
4 16 17 11 10 
4 0 1 9 6 
4 6 9 5 4 
4 0 1 17 16 
4 13 12 8 7 
4 10 13 7 3 
4 10 11 12 13 
4 13 12 14 15 
4 16 19 13 10 
4 16 17 18 19 
4 5 9 18 20 
4 20 18 12 14 
4 4 5 20 21 
4 21 20 14 15 
4 4 6 19 21 
4 21 19 13 15 
4 19 18 20 21 

CELL_TYPES 25
9 
9 
9 
9 
9 
9 
9 
9 
9 
9 
9 
9 
9 
9 
9 
9 
9 
9 
9 
9 
9 
9 
9 
9 
9 
POINT_DATA 22
SCALARS GMDS_ID int 1
LOOKUP_TABLE default
0 1 2 3 4 5 8 9 10 11 12 13 14 15 16 17 18 19 20 21 22 23 
SCALARS geom_link_dim_0 int 1
LOOKUP_TABLE default
0 0 0 0 0 0 0 0 0 0 0 0 0 0 0 0 0 0 0 0 0 0 
SCALARS geom_link_id_0 int 1
LOOKUP_TABLE default
0 0 0 0 0 0 0 0 0 0 0 0 0 0 0 0 0 0 0 0 0 0 


CELL_DATA 25
SCALARS GMDS_ID int 1
LOOKUP_TABLE default
0 1 3 5 6 7 8 10 11 12 13 14 16 18 19 26 27 28 29 30 31 32 33 34 35 

SCALARS geom_link_dim_0 int 1
LOOKUP_TABLE default
0 0 0 0 0 0 0 0 0 0 0 0 0 0 0 0 0 0 0 0 0 0 0 0 0 

SCALARS geom_link_id_0 int 1
LOOKUP_TABLE default
0 0 0 0 0 0 0 0 0 0 0 0 0 0 0 0 0 0 0 0 0 0 0 0 0 

