# vtk DataFile Version 3.0
Generated by GMDS VTK Writer

ASCII
DATASET UNSTRUCTURED_GRID
POINTS 28 float
-5 0 0
-5 10 0
10 10 0
10 0 0
-5 5 5
-5 5 0
-5 0 5
10 0 5
10 10 5
-5 10 5
5 0 0
5 10 0
5 10 5
5 0 5
5 0 10
-4.44089209850063e-16 0 0
0 10 0
0 10 5
0 0 5
0 0 10
0 5 5
0 5 0
5 5 0
5 5 5
10 5 5
10 5 0
0 5 10
5 5 10

CELLS 34 170
4 0 6 18 15 
4 11 12 8 2 
4 22 23 12 11 
4 10 13 23 22 
4 16 17 12 11 
4 4 20 17 9 
4 1 9 17 16 
4 5 4 20 21 
4 5 21 16 1 
4 10 13 7 3 
4 0 15 21 5 
4 6 18 20 4 
4 21 20 17 16 
4 5 4 9 1 
4 15 18 20 21 
4 0 6 4 5 
4 15 18 13 10 
4 19 18 13 14 
4 7 13 23 24 
4 24 23 12 8 
4 3 7 24 25 
4 25 24 8 2 
4 3 10 22 25 
4 25 22 11 2 
4 22 23 24 25 
4 13 18 20 23 
4 23 20 17 12 
4 10 15 21 22 
4 22 21 16 11 
4 21 20 23 22 
4 18 19 26 20 
4 13 14 27 23 
4 14 19 26 27 
4 26 20 23 27 

CELL_TYPES 34
9 
9 
9 
9 
9 
9 
9 
9 
9 
9 
9 
9 
9 
9 
9 
9 
9 
9 
9 
9 
9 
9 
9 
9 
9 
9 
9 
9 
9 
9 
9 
9 
9 
9 
POINT_DATA 28
SCALARS GMDS_ID int 1
LOOKUP_TABLE default
0 1 2 3 6 7 8 9 10 11 12 13 14 15 17 18 19 20 21 23 24 25 26 27 28 29 31 32 
SCALARS geom_link_dim_0 int 1
LOOKUP_TABLE default
0 0 0 0 0 0 0 0 0 0 0 0 0 0 0 0 0 0 0 0 0 0 0 0 0 0 0 0 
SCALARS geom_link_id_0 int 1
LOOKUP_TABLE default
0 0 0 0 0 0 0 0 0 0 0 0 0 0 0 0 0 0 0 0 0 0 0 0 0 0 0 0 


CELL_DATA 34
SCALARS GMDS_ID int 1
LOOKUP_TABLE default
0 1 2 4 7 9 10 15 17 18 20 21 22 23 24 25 27 34 36 37 38 39 40 41 42 43 44 45 46 47 50 55 57 59 

SCALARS geom_link_dim_0 int 1
LOOKUP_TABLE default
0 0 0 0 0 0 0 0 0 0 0 0 0 0 0 0 0 0 0 0 0 0 0 0 0 0 0 0 0 0 0 0 0 0 

SCALARS geom_link_id_0 int 1
LOOKUP_TABLE default
0 0 0 0 0 0 0 0 0 0 0 0 0 0 0 0 0 0 0 0 0 0 0 0 0 0 0 0 0 0 0 0 0 0 

