# vtk DataFile Version 3.0
Generated by GMDS VTK Writer

ASCII
DATASET UNSTRUCTURED_GRID
POINTS 30 float
-5 0 0
10 0 0
-5 0 10
10 10 10
0 10 0
8.88178419700125e-16 0 0
0 0 10
10 5 0
10 5 10
0 5 10
0 5 0
-5 5 10
-5 5 0
5 5 0
5 5 10
5 10 10
5 10 0
5 0 0
5 0 10
10 10 5
10 5 5
5 5 5
5 10 5
-5 0 5
0 0 5
0 5 5
-5 5 5
0 10 5
10 0 5
5 0 5

CELLS 36 180
4 21 22 15 14 
4 13 16 22 21 
4 3 8 14 15 
4 20 21 14 8 
4 7 13 21 20 
4 19 20 8 3 
4 2 6 9 11 
4 0 5 10 12 
4 16 13 10 4 
4 18 14 9 6 
4 1 7 13 17 
4 17 13 10 5 
4 19 22 15 3 
4 19 20 21 22 
4 0 5 24 23 
4 23 24 6 2 
4 5 10 25 24 
4 24 25 9 6 
4 10 12 26 25 
4 25 26 11 9 
4 0 12 26 23 
4 23 26 11 2 
4 23 24 25 26 
4 4 10 25 27 
4 10 13 21 25 
4 25 21 14 9 
4 4 16 22 27 
4 22 21 25 27 
4 1 7 20 28 
4 13 17 29 21 
4 21 29 18 14 
4 1 17 29 28 
4 28 20 21 29 
4 5 17 29 24 
4 24 29 18 6 
4 29 21 25 24 

CELL_TYPES 36
9 
9 
9 
9 
9 
9 
9 
9 
9 
9 
9 
9 
9 
9 
9 
9 
9 
9 
9 
9 
9 
9 
9 
9 
9 
9 
9 
9 
9 
9 
9 
9 
9 
9 
9 
9 
POINT_DATA 30
SCALARS GMDS_ID int 1
LOOKUP_TABLE default
0 3 4 6 8 9 10 12 13 14 15 16 17 18 19 20 21 22 23 24 25 26 27 28 29 30 31 32 34 35 
SCALARS geom_link_dim_0 int 1
LOOKUP_TABLE default
0 0 0 0 0 0 0 0 0 0 0 0 0 0 0 0 0 0 0 0 0 0 0 0 0 0 0 0 0 0 
SCALARS geom_link_id_0 int 1
LOOKUP_TABLE default
0 0 0 0 0 0 0 0 0 0 0 0 0 0 0 0 0 0 0 0 0 0 0 0 0 0 0 0 0 0 


CELL_DATA 36
SCALARS GMDS_ID int 1
LOOKUP_TABLE default
2 8 10 12 17 18 20 24 27 32 33 34 36 37 38 39 40 41 42 43 44 45 46 47 54 55 56 58 59 61 62 63 65 66 67 68 

SCALARS geom_link_dim_0 int 1
LOOKUP_TABLE default
0 0 0 0 0 0 0 0 0 0 0 0 0 0 0 0 0 0 0 0 0 0 0 0 0 0 0 0 0 0 0 0 0 0 0 0 

SCALARS geom_link_id_0 int 1
LOOKUP_TABLE default
0 0 0 0 0 0 0 0 0 0 0 0 0 0 0 0 0 0 0 0 0 0 0 0 0 0 0 0 0 0 0 0 0 0 0 0 

