# vtk DataFile Version 3.0
Generated by GMDS VTK Writer

ASCII
DATASET UNSTRUCTURED_GRID
POINTS 29 float
-5 0 0
-5 10 0
10 5 5
10 0 0
-5 10 10
10 0 5
0 5 0
-5 5 0
-5 5 10
8.88178419700125e-16 0 0
10 5 0
5 0 0
5 0 10
5 5 10
5 5 0
5 10 0
5 5 5
5 0 5
-5 5 5
-5 0 5
5 10 5
-5 10 5
0 5 5
0 0 5
0 5 10
0 0 10
0 10 0
0 10 5
8.88178419700125e-16 10 10

CELLS 35 175
4 6 22 16 14 
4 25 24 13 12 
4 24 22 16 13 
4 5 2 16 17 
4 0 7 6 9 
4 8 18 22 24 
4 9 6 14 11 
4 3 11 17 5 
4 17 16 13 12 
4 11 14 16 17 
4 9 6 22 23 
4 9 23 17 11 
4 3 10 14 11 
4 0 19 23 9 
4 10 14 16 2 
4 7 18 22 6 
4 22 23 17 16 
4 3 10 2 5 
4 18 19 23 22 
4 0 7 18 19 
4 14 15 20 16 
4 1 7 18 21 
4 21 18 8 4 
4 25 23 17 12 
4 23 22 24 25 
4 1 7 6 26 
4 26 6 14 15 
4 18 21 27 22 
4 22 27 20 16 
4 1 21 27 26 
4 26 27 20 15 
4 26 6 22 27 
4 4 8 24 28 
4 4 21 27 28 
4 27 22 24 28 

CELL_TYPES 35
9 
9 
9 
9 
9 
9 
9 
9 
9 
9 
9 
9 
9 
9 
9 
9 
9 
9 
9 
9 
9 
9 
9 
9 
9 
9 
9 
9 
9 
9 
9 
9 
9 
9 
9 
POINT_DATA 29
SCALARS GMDS_ID int 1
LOOKUP_TABLE default
0 1 2 3 5 6 7 8 9 10 11 12 13 14 15 17 18 19 20 21 22 23 24 25 26 27 28 29 30 
SCALARS geom_link_dim int 1
LOOKUP_TABLE default
1 0 1 1 0 1 1 1 0 2 1 2 1 1 1 1 1 1 1 1 1 0 1 1 1 1 1 1 0 
SCALARS geom_link_id int 1
LOOKUP_TABLE default
5 -1 20 6 -1 10 18 19 -1 17 14 17 8 11 15 16 12 9 13 7 22 -1 4 1 3 2 17 21 -1 


CELL_DATA 35
SCALARS GMDS_ID int 1
LOOKUP_TABLE default
1 5 7 8 9 10 11 12 13 14 15 16 17 19 20 22 23 24 26 27 32 34 35 39 40 41 42 43 44 45 46 47 48 50 52 

SCALARS geom_link_dim int 1
LOOKUP_TABLE default
0 0 0 0 0 0 0 0 0 0 0 0 0 0 0 0 0 0 0 0 0 0 0 0 0 0 0 0 0 0 0 0 0 0 0 

SCALARS geom_link_id int 1
LOOKUP_TABLE default
0 0 0 0 0 0 0 0 0 0 0 0 0 0 0 0 0 0 0 0 0 0 0 0 0 0 0 0 0 0 0 0 0 0 0 

