# vtk DataFile Version 3.0
Generated by GMDS VTK Writer

ASCII
DATASET UNSTRUCTURED_GRID
POINTS 30 float
-5 0 0
-5 10 0
10 10 0
10 0 0
-5 0 10
0 5 5
-4.44089209850063e-16 0 0
0 10 0
-5 0 5
10 0 5
10 10 5
-5 10 5
5 0 0
5 10 0
5 10 5
5 0 5
0 5 0
5 0 10
-5 5 0
-5 5 5
5 5 5
5 5 0
10 5 5
10 5 0
-5 5 10
5 5 10
0 10 5
0 0 5
0 0 10
0 5 10

CELLS 38 190
4 13 14 10 2 
4 28 27 5 29 
4 28 29 25 17 
4 21 20 14 13 
4 12 15 20 21 
4 4 24 29 28 
4 5 29 25 20 
4 18 19 11 1 
4 19 24 29 5 
4 28 27 15 17 
4 0 8 19 18 
4 4 8 27 28 
4 6 27 5 16 
4 12 15 9 3 
4 6 16 21 12 
4 26 5 20 14 
4 6 27 15 12 
4 0 18 16 6 
4 27 5 20 15 
4 7 16 21 13 
4 8 19 5 27 
4 9 15 20 22 
4 22 20 14 10 
4 3 9 22 23 
4 23 22 10 2 
4 3 12 21 23 
4 23 21 13 2 
4 21 20 22 23 
4 4 8 19 24 
4 11 19 5 26 
4 15 17 25 20 
4 16 5 20 21 
4 18 19 5 16 
4 7 26 14 13 
4 0 8 27 6 
4 1 11 26 7 
4 16 5 26 7 
4 1 18 16 7 

CELL_TYPES 38
9 
9 
9 
9 
9 
9 
9 
9 
9 
9 
9 
9 
9 
9 
9 
9 
9 
9 
9 
9 
9 
9 
9 
9 
9 
9 
9 
9 
9 
9 
9 
9 
9 
9 
9 
9 
9 
9 
POINT_DATA 30
SCALARS GMDS_ID int 1
LOOKUP_TABLE default
0 1 2 3 4 5 6 7 8 9 10 11 12 13 14 15 16 17 18 19 20 21 22 23 24 25 26 27 28 29 
SCALARS geom_link_dim int 1
LOOKUP_TABLE default
1 0 0 1 0 1 2 1 1 1 0 0 2 1 1 1 1 1 1 1 1 1 1 1 0 1 1 1 1 1 
SCALARS geom_link_id int 1
LOOKUP_TABLE default
5 -1 -1 6 -1 4 17 17 7 10 -1 -1 17 16 22 9 18 8 19 13 12 15 20 14 -1 11 21 1 2 3 


CELL_DATA 38
SCALARS GMDS_ID int 1
LOOKUP_TABLE default
1 3 4 5 6 8 9 11 12 13 14 15 16 18 19 20 21 22 23 25 26 29 30 31 32 33 34 35 36 37 38 39 41 43 44 45 46 47 

SCALARS geom_link_dim int 1
LOOKUP_TABLE default
0 0 0 0 0 0 0 0 0 0 0 0 0 0 0 0 0 0 0 0 0 0 0 0 0 0 0 0 0 0 0 0 0 0 0 0 0 0 

SCALARS geom_link_id int 1
LOOKUP_TABLE default
0 -1 -1 0 0 -1 -1 0 -1 -1 0 -1 -1 0 -1 -1 -1 -1 -1 -1 -1 0 0 0 0 0 0 0 0 -1 0 -1 -1 -1 -1 -1 -1 -1 

