# vtk DataFile Version 3.0
Generated by GMDS VTK Writer

ASCII
DATASET UNSTRUCTURED_GRID
POINTS 26 float
-5 0 0
10 0 0
-5 0 10
0 10 0
8.88178419700125e-16 0 0
0 0 10
10 5 0
0 5 10
0 5 0
-5 5 10
-5 5 0
5 5 0
5 5 10
5 10 0
5 0 0
5 0 10
10 5 5
5 5 5
5 10 5
-5 0 5
0 0 5
0 5 5
-5 5 5
0 10 5
10 0 5
5 0 5

CELLS 30 150
4 11 13 18 17 
4 6 11 17 16 
4 2 5 7 9 
4 0 4 8 10 
4 13 11 8 3 
4 15 12 7 5 
4 1 6 11 14 
4 14 11 8 4 
4 0 4 20 19 
4 19 20 5 2 
4 4 8 21 20 
4 20 21 7 5 
4 8 10 22 21 
4 21 22 9 7 
4 0 10 22 19 
4 19 22 9 2 
4 19 20 21 22 
4 3 8 21 23 
4 8 11 17 21 
4 21 17 12 7 
4 3 13 18 23 
4 18 17 21 23 
4 1 6 16 24 
4 11 14 25 17 
4 17 25 15 12 
4 1 14 25 24 
4 24 16 17 25 
4 4 14 25 20 
4 20 25 15 5 
4 25 17 21 20 

CELL_TYPES 30
9 
9 
9 
9 
9 
9 
9 
9 
9 
9 
9 
9 
9 
9 
9 
9 
9 
9 
9 
9 
9 
9 
9 
9 
9 
9 
9 
9 
9 
9 
POINT_DATA 26
SCALARS GMDS_ID int 1
LOOKUP_TABLE default
0 3 4 8 9 10 12 14 15 16 17 18 19 21 22 23 25 26 27 28 29 30 31 32 34 35 
SCALARS geom_link_dim_0 int 1
LOOKUP_TABLE default
0 0 0 0 0 0 0 0 0 0 0 0 0 0 0 0 0 0 0 0 0 0 0 0 0 0 
SCALARS geom_link_id_0 int 1
LOOKUP_TABLE default
0 0 0 0 0 0 0 0 0 0 0 0 0 0 0 0 0 0 0 0 0 0 0 0 0 0 


CELL_DATA 30
SCALARS GMDS_ID int 1
LOOKUP_TABLE default
8 17 20 24 27 32 33 34 38 39 40 41 42 43 44 45 46 47 54 55 56 58 59 61 62 63 65 66 67 68 

SCALARS geom_link_dim_0 int 1
LOOKUP_TABLE default
0 0 0 0 0 0 0 0 0 0 0 0 0 0 0 0 0 0 0 0 0 0 0 0 0 0 0 0 0 0 

SCALARS geom_link_id_0 int 1
LOOKUP_TABLE default
0 0 0 0 0 0 0 0 0 0 0 0 0 0 0 0 0 0 0 0 0 0 0 0 0 0 0 0 0 0 

