# vtk DataFile Version 3.0
Generated by GMDS VTK Writer

ASCII
DATASET UNSTRUCTURED_GRID
POINTS 24 float
-5 0 0
10 0 0
5 5 5
10 5 5
5 10 0
5 0 0
5 0 10
10 0 5
5 0 5
5 10 5
-5 0 5
8.88178419700125e-16 0 0
0 10 0
0 10 5
0 0 5
0 0 10
5 5 10
-5 5 0
-5 5 5
0 5 5
0 5 0
10 5 0
5 5 0
0 5 10

CELLS 26 130
4 0 10 14 11 
4 1 5 8 7 
4 12 13 9 4 
4 0 10 18 17 
4 11 14 8 5 
4 6 8 2 16 
4 7 8 2 3 
4 15 14 8 6 
4 10 14 19 18 
4 11 14 19 20 
4 20 19 13 12 
4 0 11 20 17 
4 17 18 19 20 
4 1 5 22 21 
4 5 8 2 22 
4 22 2 9 4 
4 1 7 3 21 
4 21 22 2 3 
4 8 14 19 2 
4 2 19 13 9 
4 5 11 20 22 
4 22 20 12 4 
4 20 19 2 22 
4 14 15 23 19 
4 6 15 23 16 
4 23 19 2 16 

CELL_TYPES 26
9 
9 
9 
9 
9 
9 
9 
9 
9 
9 
9 
9 
9 
9 
9 
9 
9 
9 
9 
9 
9 
9 
9 
9 
9 
9 
POINT_DATA 24
SCALARS GMDS_ID int 1
LOOKUP_TABLE default
0 3 4 5 8 9 10 13 14 15 16 18 19 20 21 23 24 26 27 28 29 30 31 32 
SCALARS geom_link_dim int 1
LOOKUP_TABLE default
1 1 1 1 1 2 1 1 1 1 1 2 1 1 1 1 1 1 1 1 1 1 1 1 
SCALARS geom_link_id int 1
LOOKUP_TABLE default
5 6 12 20 16 17 8 10 9 22 7 17 17 21 1 2 11 19 13 4 18 14 15 3 


CELL_DATA 26
SCALARS GMDS_ID int 1
LOOKUP_TABLE default
1 2 9 11 27 29 33 34 36 38 39 40 42 43 45 46 47 49 50 51 52 53 54 55 57 59 

SCALARS geom_link_dim int 1
LOOKUP_TABLE default
3 3 3 3 3 3 3 3 3 3 3 3 3 3 4 3 3 3 4 3 3 3 4 3 3 3 

SCALARS geom_link_id int 1
LOOKUP_TABLE default
2 2 3 7 2 11 15 2 12 1 6 1 5 1 1 4 14 10 1 9 1 1 1 16 8 13 

