# vtk DataFile Version 3.0
Generated by GMDS VTK Writer

ASCII
DATASET UNSTRUCTURED_GRID
POINTS 28 float
-5 0 0
-5 10 0
10 0 0
-5 0 10
5 10 0
5 0 0
5 0 10
0 10 0
8.88178419700125e-16 0 0
0 0 10
0 10 5
0 0 5
-5 0 5
-5 10 5
5 10 5
5 0 5
10 0 5
-5 5 5
0 5 5
0 5 10
-5 5 10
-5 5 0
0 5 0
5 5 0
5 5 5
5 5 10
10 5 0
10 5 5

CELLS 34 170
4 0 8 22 21 
4 17 18 19 20 
4 3 12 17 20 
4 12 11 9 3 
4 0 8 11 12 
4 3 9 19 20 
4 9 11 18 19 
4 18 17 13 10 
4 11 12 17 18 
4 1 7 10 13 
4 5 8 11 15 
4 15 11 9 6 
4 4 7 10 14 
4 2 5 15 16 
4 21 22 7 1 
4 8 11 18 22 
4 22 18 10 7 
4 0 12 17 21 
4 21 17 13 1 
4 21 22 18 17 
4 5 8 22 23 
4 23 22 7 4 
4 11 15 24 18 
4 18 24 14 10 
4 5 15 24 23 
4 23 24 14 4 
4 23 22 18 24 
4 6 9 19 25 
4 6 15 24 25 
4 24 18 19 25 
4 2 5 23 26 
4 15 16 27 24 
4 2 16 27 26 
4 26 23 24 27 

CELL_TYPES 34
9 
9 
9 
9 
9 
9 
9 
9 
9 
9 
9 
9 
9 
9 
9 
9 
9 
9 
9 
9 
9 
9 
9 
9 
9 
9 
9 
9 
9 
9 
9 
9 
9 
9 
POINT_DATA 28
SCALARS GMDS_ID int 1
LOOKUP_TABLE default
0 1 3 4 8 9 10 12 13 14 16 17 18 19 20 21 23 24 25 26 27 28 29 30 31 32 33 34 
SCALARS geom_link_dim int 1
LOOKUP_TABLE default
1 0 1 0 1 2 1 1 2 1 1 1 1 0 1 1 1 1 1 1 0 1 1 1 1 1 1 1 
SCALARS geom_link_id int 1
LOOKUP_TABLE default
5 -1 6 -1 16 17 8 17 17 2 21 1 7 -1 22 9 10 13 4 3 -1 19 18 15 12 11 14 20 


CELL_DATA 34
SCALARS GMDS_ID int 1
LOOKUP_TABLE default
0 1 3 7 9 12 17 18 19 22 27 28 29 34 39 40 41 42 43 44 45 46 47 48 49 50 51 52 54 56 57 59 61 63 

SCALARS geom_link_dim int 1
LOOKUP_TABLE default
0 0 0 0 0 0 0 0 0 0 0 0 0 0 0 0 0 0 0 0 0 0 0 0 0 0 0 0 0 0 0 0 0 0 

SCALARS geom_link_id int 1
LOOKUP_TABLE default
0 0 0 0 0 0 0 0 0 0 0 0 0 0 0 0 0 0 0 0 0 0 0 0 0 0 0 0 0 0 0 0 0 0 

