# vtk DataFile Version 3.0
Generated by GMDS VTK Writer

ASCII
DATASET UNSTRUCTURED_GRID
POINTS 24 float
-5 0 0
10 0 0
-5 5 5
-5 5 0
-5 0 5
10 0 5
5 0 0
5 10 0
5 10 5
5 0 5
5 0 10
-4.44089209850063e-16 0 0
0 10 0
0 10 5
0 0 5
0 0 10
0 5 5
0 5 0
5 5 0
5 5 5
10 5 5
10 5 0
0 5 10
5 5 10

CELLS 26 130
4 0 4 14 11 
4 18 19 8 7 
4 6 9 19 18 
4 12 13 8 7 
4 3 2 16 17 
4 6 9 5 1 
4 0 11 17 3 
4 4 14 16 2 
4 17 16 13 12 
4 11 14 16 17 
4 0 4 2 3 
4 11 14 9 6 
4 15 14 9 10 
4 5 9 19 20 
4 1 5 20 21 
4 1 6 18 21 
4 18 19 20 21 
4 9 14 16 19 
4 19 16 13 8 
4 6 11 17 18 
4 18 17 12 7 
4 17 16 19 18 
4 14 15 22 16 
4 9 10 23 19 
4 10 15 22 23 
4 22 16 19 23 

CELL_TYPES 26
9 
9 
9 
9 
9 
9 
9 
9 
9 
9 
9 
9 
9 
9 
9 
9 
9 
9 
9 
9 
9 
9 
9 
9 
9 
9 
POINT_DATA 24
SCALARS GMDS_ID int 1
LOOKUP_TABLE default
0 3 6 7 8 9 12 13 14 15 17 18 19 20 21 23 24 25 26 27 28 29 31 32 
SCALARS geom_link_dim_0 int 1
LOOKUP_TABLE default
0 0 0 0 0 0 0 0 0 0 0 0 0 0 0 0 0 0 0 0 0 0 0 0 
SCALARS geom_link_id_0 int 1
LOOKUP_TABLE default
0 0 0 0 0 0 0 0 0 0 0 0 0 0 0 0 0 0 0 0 0 0 0 0 


CELL_DATA 26
SCALARS GMDS_ID int 1
LOOKUP_TABLE default
0 2 4 7 15 18 20 21 22 24 25 27 34 36 38 40 42 43 44 45 46 47 50 55 57 59 

SCALARS geom_link_dim_0 int 1
LOOKUP_TABLE default
0 0 0 0 0 0 0 0 0 0 0 0 0 0 0 0 0 0 0 0 0 0 0 0 0 0 

SCALARS geom_link_id_0 int 1
LOOKUP_TABLE default
0 0 0 0 0 0 0 0 0 0 0 0 0 0 0 0 0 0 0 0 0 0 0 0 0 0 

