# vtk DataFile Version 3.0
Generated by GMDS VTK Writer

ASCII
DATASET UNSTRUCTURED_GRID
POINTS 32 float
-5 0 0
10 10 0
10 0 0
-5 0 10
10 0 10
-5 0 5
10 0 5
10 10 5
-8.88178419700125e-16 0 0
0 10 0
0 10 5
0 0 5
-8.88178419700125e-16 10 10
0 0 10
5 0 0
5 10 0
5 10 5
5 0 5
5 10 10
5 0 10
0 5 0
0 5 5
5 5 5
5 5 0
-5 5 0
-5 5 5
-5 5 10
0 5 10
10 5 5
10 5 0
5 5 10
10 5 10

CELLS 42 210
4 8 11 17 14 
4 8 14 23 20 
4 23 22 16 15 
4 15 16 7 1 
4 9 10 16 15 
4 14 17 22 23 
4 0 5 11 8 
4 21 22 16 10 
4 11 17 22 21 
4 20 21 10 9 
4 3 5 11 13 
4 8 11 21 20 
4 14 17 6 2 
4 10 12 18 16 
4 11 13 19 17 
4 17 19 4 6 
4 20 23 15 9 
4 20 21 22 23 
4 0 5 25 24 
4 5 11 21 25 
4 0 8 20 24 
4 24 25 21 20 
4 3 5 25 26 
4 11 13 27 21 
4 21 27 12 10 
4 3 13 27 26 
4 26 25 21 27 
4 6 17 22 28 
4 28 22 16 7 
4 2 6 28 29 
4 29 28 7 1 
4 2 14 23 29 
4 29 23 15 1 
4 23 22 28 29 
4 13 19 30 27 
4 27 30 18 12 
4 17 19 30 22 
4 22 30 18 16 
4 21 27 30 22 
4 4 19 30 31 
4 4 6 28 31 
4 22 30 31 28 

CELL_TYPES 42
9 
9 
9 
9 
9 
9 
9 
9 
9 
9 
9 
9 
9 
9 
9 
9 
9 
9 
9 
9 
9 
9 
9 
9 
9 
9 
9 
9 
9 
9 
9 
9 
9 
9 
9 
9 
9 
9 
9 
9 
9 
9 
POINT_DATA 32
SCALARS GMDS_ID int 1
LOOKUP_TABLE default
0 2 3 4 7 8 9 10 12 13 14 15 16 17 18 19 20 21 22 23 24 25 26 27 28 29 30 31 32 33 34 35 
SCALARS geom_link_dim_0 int 1
LOOKUP_TABLE default
0 0 0 0 0 0 0 0 0 0 0 0 0 0 0 0 0 0 0 0 0 0 0 0 0 0 0 0 0 0 0 0 
SCALARS geom_link_id_0 int 1
LOOKUP_TABLE default
0 0 0 0 0 0 0 0 0 0 0 0 0 0 0 0 0 0 0 0 0 0 0 0 0 0 0 0 0 0 0 0 


CELL_DATA 42
SCALARS GMDS_ID int 1
LOOKUP_TABLE default
0 1 3 7 10 16 17 18 21 23 24 25 27 29 33 34 36 37 38 40 42 44 45 47 48 49 51 52 53 54 55 56 57 58 59 60 61 62 63 64 66 68 

SCALARS geom_link_dim_0 int 1
LOOKUP_TABLE default
0 0 0 0 0 0 0 0 0 0 0 0 0 0 0 0 0 0 0 0 0 0 0 0 0 0 0 0 0 0 0 0 0 0 0 0 0 0 0 0 0 0 

SCALARS geom_link_id_0 int 1
LOOKUP_TABLE default
0 0 0 0 0 0 0 0 0 0 0 0 0 0 0 0 0 0 0 0 0 0 0 0 0 0 0 0 0 0 0 0 0 0 0 0 0 0 0 0 0 0 

