# vtk DataFile Version 3.0
Generated by GMDS VTK Writer

ASCII
DATASET UNSTRUCTURED_GRID
POINTS 18 float
-5 0 0
-5 10 0
10 10 0
10 0 0
-5 0 10
-5 10 10
10 10 10
10 0 10
-5 0 5
10 0 5
10 10 5
-5 10 5
5 0 0
5 10 0
5 10 5
5 0 5
5 10 10
5 0 10

CELLS 20 100
4 13 14 10 2 
4 1 11 14 13 
4 12 13 2 3 
4 0 1 13 12 
4 2 3 9 10 
4 10 9 7 6 
4 0 1 11 8 
4 8 11 5 4 
4 8 11 14 15 
4 15 14 10 9 
4 0 8 15 12 
4 12 15 9 3 
4 12 13 14 15 
4 5 11 14 16 
4 16 14 10 6 
4 4 5 16 17 
4 17 16 6 7 
4 4 8 15 17 
4 17 15 9 7 
4 15 14 16 17 

CELL_TYPES 20
9 
9 
9 
9 
9 
9 
9 
9 
9 
9 
9 
9 
9 
9 
9 
9 
9 
9 
9 
9 
POINT_DATA 18
SCALARS GMDS_ID int 1
LOOKUP_TABLE default
0 1 2 3 4 5 6 7 8 9 10 11 12 13 14 15 16 17 
SCALARS geom_link_dim_0 int 1
LOOKUP_TABLE default
0 0 0 0 0 0 0 0 0 0 0 0 0 0 0 0 0 0 
SCALARS geom_link_id_0 int 1
LOOKUP_TABLE default
0 0 0 0 0 0 0 0 0 0 0 0 0 0 0 0 0 0 


CELL_DATA 20
SCALARS GMDS_ID int 1
LOOKUP_TABLE default
1 2 3 4 8 9 12 13 15 16 17 18 19 20 21 22 23 24 25 26 

SCALARS geom_link_dim_0 int 1
LOOKUP_TABLE default
0 0 0 0 0 0 0 0 0 0 0 0 0 0 0 0 0 0 0 0 

SCALARS geom_link_id_0 int 1
LOOKUP_TABLE default
0 0 0 0 0 0 0 0 0 0 0 0 0 0 0 0 0 0 0 0 

