# vtk DataFile Version 3.0
Generated by GMDS VTK Writer

ASCII
DATASET UNSTRUCTURED_GRID
POINTS 22 float
-5 0 0
-5 10 0
10 10 0
10 0 0
10 10 10
10 0 10
5 10 0
5 0 0
5 0 10
5 10 10
10 10 5
10 0 5
5 0 5
5 10 5
-5 0 5
-5 10 5
8.88178419700125e-16 0 0
0 10 0
0 10 5
0 0 5
8.88178419700125e-16 10 10
0 0 10

CELLS 25 125
4 11 12 8 5 
4 0 14 19 16 
4 3 7 12 11 
4 19 18 13 12 
4 10 11 5 4 
4 2 3 11 10 
4 2 3 7 6 
4 14 15 18 19 
4 17 18 13 6 
4 4 5 8 9 
4 1 15 18 17 
4 16 17 6 7 
4 0 1 17 16 
4 6 7 12 13 
4 13 12 8 9 
4 2 6 13 10 
4 10 13 9 4 
4 10 11 12 13 
4 0 1 15 14 
4 16 19 12 7 
4 16 17 18 19 
4 20 18 13 9 
4 21 20 9 8 
4 21 19 12 8 
4 19 18 20 21 

CELL_TYPES 25
9 
9 
9 
9 
9 
9 
9 
9 
9 
9 
9 
9 
9 
9 
9 
9 
9 
9 
9 
9 
9 
9 
9 
9 
9 
POINT_DATA 22
SCALARS GMDS_ID int 1
LOOKUP_TABLE default
0 1 2 3 6 7 8 9 10 11 12 13 14 15 16 17 18 19 20 21 22 23 
SCALARS geom_link_dim int 1
LOOKUP_TABLE default
1 0 0 1 0 0 1 2 1 0 0 1 1 1 1 0 2 1 1 1 0 1 
SCALARS geom_link_id int 1
LOOKUP_TABLE default
5 -1 -1 6 -1 -1 16 17 8 -1 -1 10 9 22 7 -1 17 17 21 1 -1 2 


CELL_DATA 25
SCALARS GMDS_ID int 1
LOOKUP_TABLE default
0 1 2 3 4 5 6 8 9 10 12 13 14 15 16 17 18 19 22 27 28 30 32 34 35 

SCALARS geom_link_dim int 1
LOOKUP_TABLE default
0 0 0 0 0 0 0 0 0 0 0 0 0 0 0 0 0 0 0 0 0 0 0 0 0 

SCALARS geom_link_id int 1
LOOKUP_TABLE default
0 0 0 0 0 0 0 0 0 0 0 0 0 0 0 0 0 0 0 0 0 0 0 0 0 

