# vtk DataFile Version 3.0
Generated by GMDS VTK Writer

ASCII
DATASET UNSTRUCTURED_GRID
POINTS 26 float
-5 0 0
10 0 0
5 5 5
10 5 5
5 10 0
5 0 0
5 0 10
5 10 10
10 0 5
5 0 5
5 10 5
-5 0 5
8.88178419700125e-16 0 0
0 10 0
0 10 5
0 0 5
8.88178419700125e-16 10 10
0 0 10
5 5 10
-5 5 0
-5 5 5
0 5 5
0 5 0
10 5 0
5 5 0
0 5 10

CELLS 30 150
4 0 11 15 12 
4 1 5 9 8 
4 13 14 10 4 
4 0 11 20 19 
4 18 2 10 7 
4 12 15 9 5 
4 6 9 2 18 
4 16 14 10 7 
4 8 9 2 3 
4 17 15 9 6 
4 11 15 21 20 
4 12 15 21 22 
4 22 21 14 13 
4 0 12 22 19 
4 19 20 21 22 
4 1 5 24 23 
4 5 9 2 24 
4 24 2 10 4 
4 1 8 3 23 
4 23 24 2 3 
4 9 15 21 2 
4 2 21 14 10 
4 5 12 22 24 
4 24 22 13 4 
4 22 21 2 24 
4 15 17 25 21 
4 21 25 16 14 
4 6 17 25 18 
4 18 25 16 7 
4 25 21 2 18 

CELL_TYPES 30
9 
9 
9 
9 
9 
9 
9 
9 
9 
9 
9 
9 
9 
9 
9 
9 
9 
9 
9 
9 
9 
9 
9 
9 
9 
9 
9 
9 
9 
9 
POINT_DATA 26
SCALARS GMDS_ID int 1
LOOKUP_TABLE default
0 3 4 5 8 9 10 11 13 14 15 16 18 19 20 21 22 23 24 26 27 28 29 30 31 32 
SCALARS geom_link_dim int 1
LOOKUP_TABLE default
1 1 1 1 1 2 1 0 1 1 1 1 2 1 1 1 0 1 1 1 1 1 1 1 1 1 
SCALARS geom_link_id int 1
LOOKUP_TABLE default
5 6 12 20 16 17 8 -1 10 9 22 7 17 17 21 1 -1 2 11 19 13 4 18 14 15 3 


CELL_DATA 30
SCALARS GMDS_ID int 1
LOOKUP_TABLE default
1 2 9 11 23 27 29 30 33 34 36 38 39 40 42 43 45 46 47 49 50 51 52 53 54 55 56 57 58 59 

SCALARS geom_link_dim int 1
LOOKUP_TABLE default
0 0 0 0 0 0 0 0 0 0 0 0 0 0 0 0 0 0 0 0 0 0 0 0 0 0 0 0 0 0 

SCALARS geom_link_id int 1
LOOKUP_TABLE default
0 0 0 0 0 0 0 0 0 0 0 0 0 0 0 0 0 0 0 0 0 0 0 0 0 0 0 0 0 0 

