# vtk DataFile Version 3.0
Generated by GMDS VTK Writer

ASCII
DATASET UNSTRUCTURED_GRID
POINTS 26 float
-5 0 0
10 0 0
5 5 5
5 5 0
0 10 0
-4.44089209850063e-16 0 0
-5 0 5
10 0 5
5 0 0
5 10 0
5 10 5
5 0 5
5 10 10
5 0 10
0 10 5
0 0 5
-4.44089209850063e-16 10 10
0 0 10
10 5 5
10 5 0
-5 5 0
-5 5 5
0 5 5
0 5 0
0 5 10
5 5 10

CELLS 30 150
4 8 11 7 1 
4 4 14 10 9 
4 0 6 15 5 
4 5 15 11 8 
4 7 11 2 18 
4 16 14 10 12 
4 3 2 10 9 
4 8 11 2 3 
4 17 15 11 13 
4 1 7 18 19 
4 1 8 3 19 
4 3 2 18 19 
4 0 6 21 20 
4 6 15 22 21 
4 5 15 22 23 
4 23 22 14 4 
4 0 5 23 20 
4 20 21 22 23 
4 11 15 22 2 
4 2 22 14 10 
4 5 8 3 23 
4 23 3 9 4 
4 23 22 2 3 
4 15 17 24 22 
4 22 24 16 14 
4 11 13 25 2 
4 2 25 12 10 
4 13 17 24 25 
4 25 24 16 12 
4 24 22 2 25 

CELL_TYPES 30
9 
9 
9 
9 
9 
9 
9 
9 
9 
9 
9 
9 
9 
9 
9 
9 
9 
9 
9 
9 
9 
9 
9 
9 
9 
9 
9 
9 
9 
9 
POINT_DATA 26
SCALARS GMDS_ID int 1
LOOKUP_TABLE default
0 2 3 4 5 6 7 8 10 11 12 13 14 15 16 17 18 19 20 21 22 23 24 25 26 27 
SCALARS geom_link_dim int 1
LOOKUP_TABLE default
1 1 1 1 1 2 1 1 2 1 1 1 0 1 1 1 0 1 1 1 1 1 1 1 1 1 
SCALARS geom_link_id int 1
LOOKUP_TABLE default
5 6 12 15 17 17 7 10 17 16 22 9 -1 8 21 1 -1 2 20 14 19 13 4 18 3 11 


CELL_DATA 30
SCALARS GMDS_ID int 1
LOOKUP_TABLE default
0 1 3 4 5 6 7 8 9 10 11 12 13 15 17 18 19 21 22 23 24 25 26 27 28 29 30 31 32 33 

SCALARS geom_link_dim int 1
LOOKUP_TABLE default
0 0 0 0 0 0 0 0 0 0 0 0 0 0 0 0 0 0 0 0 0 0 0 0 0 0 0 0 0 0 

SCALARS geom_link_id int 1
LOOKUP_TABLE default
0 0 0 0 0 0 0 0 0 0 0 0 0 0 0 0 0 0 0 0 0 0 0 0 0 0 0 0 0 0 

