# vtk DataFile Version 3.0
Generated by GMDS VTK Writer

ASCII
DATASET UNSTRUCTURED_GRID
POINTS 35 float
-5 0 0
10 10 0
10 0 0
-5 0 10
-5 10 10
10 10 10
10 0 10
-5 0 5
10 0 5
10 10 5
-5 10 5
-8.88178419700125e-16 0 0
0 10 0
0 10 5
0 0 5
-8.88178419700125e-16 10 10
0 0 10
5 0 0
5 10 0
5 10 5
5 0 5
5 10 10
5 0 10
0 5 0
0 5 5
5 5 5
5 5 0
-5 5 0
-5 5 5
-5 5 10
0 5 10
10 5 5
10 5 0
5 5 10
10 5 10

CELLS 49 245
4 11 14 20 17 
4 11 17 26 23 
4 26 25 19 18 
4 18 19 9 1 
4 12 13 19 18 
4 17 20 25 26 
4 0 7 14 11 
4 24 25 19 13 
4 4 10 13 15 
4 14 20 25 24 
4 23 24 13 12 
4 3 7 14 16 
4 11 14 24 23 
4 17 20 8 2 
4 13 15 21 19 
4 19 21 5 9 
4 14 16 22 20 
4 20 22 6 8 
4 23 26 18 12 
4 23 24 25 26 
4 0 7 28 27 
4 7 14 24 28 
4 28 24 13 10 
4 0 11 23 27 
4 27 28 24 23 
4 3 7 28 29 
4 29 28 10 4 
4 14 16 30 24 
4 24 30 15 13 
4 3 16 30 29 
4 29 30 15 4 
4 29 28 24 30 
4 8 20 25 31 
4 31 25 19 9 
4 2 8 31 32 
4 32 31 9 1 
4 2 17 26 32 
4 32 26 18 1 
4 26 25 31 32 
4 16 22 33 30 
4 30 33 21 15 
4 20 22 33 25 
4 25 33 21 19 
4 24 30 33 25 
4 6 22 33 34 
4 34 33 21 5 
4 6 8 31 34 
4 34 31 9 5 
4 25 33 34 31 

CELL_TYPES 49
9 
9 
9 
9 
9 
9 
9 
9 
9 
9 
9 
9 
9 
9 
9 
9 
9 
9 
9 
9 
9 
9 
9 
9 
9 
9 
9 
9 
9 
9 
9 
9 
9 
9 
9 
9 
9 
9 
9 
9 
9 
9 
9 
9 
9 
9 
9 
9 
9 
POINT_DATA 35
SCALARS GMDS_ID int 1
LOOKUP_TABLE default
0 2 3 4 5 6 7 8 9 10 11 12 13 14 15 16 17 18 19 20 21 22 23 24 25 26 27 28 29 30 31 32 33 34 35 
SCALARS geom_link_dim_0 int 1
LOOKUP_TABLE default
0 0 0 0 0 0 0 0 0 0 0 0 0 0 0 0 0 0 0 0 0 0 0 0 0 0 0 0 0 0 0 0 0 0 0 
SCALARS geom_link_id_0 int 1
LOOKUP_TABLE default
0 0 0 0 0 0 0 0 0 0 0 0 0 0 0 0 0 0 0 0 0 0 0 0 0 0 0 0 0 0 0 0 0 0 0 


CELL_DATA 49
SCALARS GMDS_ID int 1
LOOKUP_TABLE default
0 1 3 7 10 16 17 18 20 21 23 24 25 27 29 30 33 34 36 37 38 40 41 42 44 45 46 47 48 49 50 51 52 53 54 55 56 57 58 59 60 61 62 63 64 65 66 67 68 

SCALARS geom_link_dim_0 int 1
LOOKUP_TABLE default
0 0 0 0 0 0 0 0 0 0 0 0 0 0 0 0 0 0 0 0 0 0 0 0 0 0 0 0 0 0 0 0 0 0 0 0 0 0 0 0 0 0 0 0 0 0 0 0 0 

SCALARS geom_link_id_0 int 1
LOOKUP_TABLE default
0 0 0 0 0 0 0 0 0 0 0 0 0 0 0 0 0 0 0 0 0 0 0 0 0 0 0 0 0 0 0 0 0 0 0 0 0 0 0 0 0 0 0 0 0 0 0 0 0 

