# vtk DataFile Version 3.0
Generated by GMDS VTK Writer

ASCII
DATASET UNSTRUCTURED_GRID
POINTS 24 float
-5 0 0
10 0 0
5 5 5
5 5 0
0 10 0
-4.44089209850063e-16 0 0
-5 0 5
10 0 5
5 0 0
5 10 0
5 10 5
5 0 5
5 0 10
0 10 5
0 0 5
0 0 10
10 5 5
10 5 0
-5 5 0
-5 5 5
0 5 5
0 5 0
0 5 10
5 5 10

CELLS 26 130
4 8 11 7 1 
4 4 13 10 9 
4 0 6 14 5 
4 5 14 11 8 
4 7 11 2 16 
4 3 2 10 9 
4 8 11 2 3 
4 15 14 11 12 
4 1 7 16 17 
4 1 8 3 17 
4 3 2 16 17 
4 0 6 19 18 
4 6 14 20 19 
4 5 14 20 21 
4 21 20 13 4 
4 0 5 21 18 
4 18 19 20 21 
4 11 14 20 2 
4 2 20 13 10 
4 5 8 3 21 
4 21 3 9 4 
4 21 20 2 3 
4 14 15 22 20 
4 11 12 23 2 
4 12 15 22 23 
4 22 20 2 23 

CELL_TYPES 26
9 
9 
9 
9 
9 
9 
9 
9 
9 
9 
9 
9 
9 
9 
9 
9 
9 
9 
9 
9 
9 
9 
9 
9 
9 
9 
POINT_DATA 24
SCALARS GMDS_ID int 1
LOOKUP_TABLE default
0 1 2 3 4 5 6 7 8 9 10 11 13 14 15 17 18 19 20 21 22 23 24 25 
SCALARS geom_link_dim int 1
LOOKUP_TABLE default
1 1 1 1 1 2 1 1 2 1 1 1 1 1 1 1 1 1 1 1 1 1 1 1 
SCALARS geom_link_id int 1
LOOKUP_TABLE default
5 6 12 15 17 17 7 10 17 16 22 9 8 21 1 2 20 14 19 13 4 18 3 11 


CELL_DATA 26
SCALARS GMDS_ID int 1
LOOKUP_TABLE default
0 1 2 3 4 6 7 8 9 10 11 12 13 14 15 16 17 18 19 20 21 22 23 25 27 29 

SCALARS geom_link_dim int 1
LOOKUP_TABLE default
3 3 3 3 3 3 3 3 3 3 3 3 3 4 3 3 3 4 3 3 3 4 3 3 3 3 

SCALARS geom_link_id int 1
LOOKUP_TABLE default
2 3 2 2 15 4 1 2 14 1 10 7 12 1 6 1 5 1 9 1 1 1 16 11 8 13 

