# vtk DataFile Version 3.0
Generated by GMDS VTK Writer

ASCII
DATASET UNSTRUCTURED_GRID
POINTS 30 float
-5 0 0
-5 10 0
10 10 0
10 0 0
5 5 0
5 5 5
5 10 5
10 0 10
-5 0 5
10 0 5
10 10 5
-5 10 5
-5 5 0
10 5 0
10 5 5
-5 5 5
10 5 10
5 0 5
-8.88178419700125e-16 0 0
0 0 5
0 5 5
0 5 0
0 10 5
0 10 0
0 0 10
0 5 10
5 0 0
5 10 0
5 0 10
5 5 10

CELLS 38 190
4 0 12 21 18 
4 13 14 10 2 
4 3 9 14 13 
4 28 17 5 29 
4 28 29 16 7 
4 24 25 29 28 
4 5 29 16 14 
4 12 15 20 21 
4 20 25 29 5 
4 17 28 7 9 
4 8 15 20 19 
4 0 8 19 18 
4 19 24 28 17 
4 4 5 6 27 
4 0 8 15 12 
4 12 15 11 1 
4 4 27 2 13 
4 7 9 14 16 
4 5 6 10 14 
4 21 23 27 4 
4 6 27 2 10 
4 26 4 13 3 
4 20 21 4 5 
4 22 23 27 6 
4 18 19 20 21 
4 11 15 20 22 
4 1 11 22 23 
4 1 12 21 23 
4 21 20 22 23 
4 18 21 4 26 
4 19 20 5 17 
4 5 4 13 14 
4 24 19 20 25 
4 26 17 9 3 
4 20 22 6 5 
4 18 19 17 26 
4 26 17 5 4 
4 17 5 14 9 

CELL_TYPES 38
9 
9 
9 
9 
9 
9 
9 
9 
9 
9 
9 
9 
9 
9 
9 
9 
9 
9 
9 
9 
9 
9 
9 
9 
9 
9 
9 
9 
9 
9 
9 
9 
9 
9 
9 
9 
9 
9 
POINT_DATA 30
SCALARS GMDS_ID int 1
LOOKUP_TABLE default
0 1 2 3 4 5 6 7 8 9 10 11 12 13 14 15 16 17 18 19 20 21 22 23 24 25 26 27 28 29 
SCALARS geom_link_dim int 1
LOOKUP_TABLE default
1 0 0 1 1 1 1 0 1 1 0 0 1 1 1 1 0 1 2 1 1 1 1 1 1 1 2 1 1 1 
SCALARS geom_link_id int 1
LOOKUP_TABLE default
5 -1 -1 6 15 12 22 -1 7 10 -1 -1 19 14 20 13 -1 9 17 1 4 18 21 17 2 3 17 16 8 11 


CELL_DATA 38
SCALARS GMDS_ID int 1
LOOKUP_TABLE default
0 1 2 3 4 6 7 8 10 11 12 14 15 16 17 18 19 20 21 22 23 24 25 26 28 29 31 33 35 36 38 40 42 43 44 45 46 47 

SCALARS geom_link_dim int 1
LOOKUP_TABLE default
0 0 0 0 0 0 0 0 0 0 0 0 0 0 0 0 0 0 0 0 0 0 0 0 0 0 0 0 0 0 0 0 0 0 0 0 0 0 

SCALARS geom_link_id int 1
LOOKUP_TABLE default
0 0 0 -1 -1 -1 -1 0 -1 -1 0 0 -1 -1 0 0 -1 0 -1 -1 -1 -1 -1 -1 0 0 0 0 0 -1 -1 -1 0 -1 -1 -1 -1 -1 

