# vtk DataFile Version 3.0
Generated by GMDS VTK Writer

ASCII
DATASET UNSTRUCTURED_GRID
POINTS 36 float
-5 0 0
-5 10 0
10 10 0
10 0 0
-5 0 10
-5 10 10
10 10 10
10 0 10
5 10 0
5 0 0
5 0 10
5 10 10
0 10 0
8.88178419700125e-16 0 0
0 0 10
8.88178419700125e-16 10 10
0 10 5
0 0 5
-5 0 5
-5 10 5
5 10 5
5 0 5
10 10 5
10 0 5
-5 5 5
0 5 5
0 5 10
-5 5 10
-5 5 0
0 5 0
5 5 0
5 5 5
5 5 10
10 5 0
10 5 5
10 5 10

CELLS 52 260
4 0 13 29 28 
4 24 25 26 27 
4 27 24 19 5 
4 4 18 24 27 
4 18 17 14 4 
4 27 26 15 5 
4 0 13 17 18 
4 4 14 26 27 
4 26 25 16 15 
4 14 17 25 26 
4 25 24 19 16 
4 17 18 24 25 
4 1 12 16 19 
4 19 16 15 5 
4 9 13 17 21 
4 21 17 14 10 
4 8 12 16 20 
4 20 16 15 11 
4 3 9 21 23 
4 23 21 10 7 
4 2 8 20 22 
4 22 20 11 6 
4 28 29 12 1 
4 13 17 25 29 
4 29 25 16 12 
4 0 18 24 28 
4 28 24 19 1 
4 28 29 25 24 
4 9 13 29 30 
4 30 29 12 8 
4 17 21 31 25 
4 25 31 20 16 
4 9 21 31 30 
4 30 31 20 8 
4 30 29 25 31 
4 10 14 26 32 
4 32 26 15 11 
4 10 21 31 32 
4 32 31 20 11 
4 31 25 26 32 
4 3 9 30 33 
4 33 30 8 2 
4 21 23 34 31 
4 31 34 22 20 
4 3 23 34 33 
4 33 34 22 2 
4 33 30 31 34 
4 7 10 32 35 
4 35 32 11 6 
4 7 23 34 35 
4 35 34 22 6 
4 34 31 32 35 

CELL_TYPES 52
9 
9 
9 
9 
9 
9 
9 
9 
9 
9 
9 
9 
9 
9 
9 
9 
9 
9 
9 
9 
9 
9 
9 
9 
9 
9 
9 
9 
9 
9 
9 
9 
9 
9 
9 
9 
9 
9 
9 
9 
9 
9 
9 
9 
9 
9 
9 
9 
9 
9 
9 
9 
POINT_DATA 36
SCALARS GMDS_ID int 1
LOOKUP_TABLE default
0 1 2 3 4 5 6 7 8 9 10 11 12 13 14 15 16 17 18 19 20 21 22 23 24 25 26 27 28 29 30 31 32 33 34 35 
SCALARS geom_link_dim int 1
LOOKUP_TABLE default
1 0 0 1 0 0 0 0 1 2 1 0 1 2 1 0 1 1 1 0 1 1 0 1 1 0 1 0 1 1 1 0 1 1 1 0 
SCALARS geom_link_id int 1
LOOKUP_TABLE default
5 -1 -1 6 -1 -1 -1 -1 16 17 8 -1 17 17 2 -1 21 1 7 -1 22 9 -1 10 13 -1 3 -1 19 18 15 -1 11 14 20 -1 


CELL_DATA 52
SCALARS GMDS_ID int 1
LOOKUP_TABLE default
0 1 2 3 7 8 9 12 14 17 18 19 22 23 27 28 29 30 34 35 36 37 39 40 41 42 43 44 45 46 47 48 49 50 51 52 53 54 55 56 57 58 59 60 61 62 63 64 65 66 67 68 

SCALARS geom_link_dim int 1
LOOKUP_TABLE default
0 0 0 0 0 0 0 0 0 0 0 0 0 0 0 0 0 0 0 0 0 0 0 0 0 0 0 0 0 0 0 0 0 0 0 0 0 0 0 0 0 0 0 0 0 0 0 0 0 0 0 0 

SCALARS geom_link_id int 1
LOOKUP_TABLE default
-1 -1 -1 -1 0 -1 0 -1 -1 -1 -1 -1 0 0 0 0 0 0 0 0 0 0 -1 -1 -1 -1 -1 -1 -1 -1 -1 -1 -1 -1 -1 -1 -1 -1 -1 -1 -1 -1 -1 -1 -1 -1 -1 -1 -1 -1 -1 -1 

