# vtk DataFile Version 3.0
Generated by GMDS VTK Writer

ASCII
DATASET UNSTRUCTURED_GRID
POINTS 26 float
-5 0 0
-5 10 0
10 0 0
0 5 5
-4.44089209850063e-16 0 0
0 10 0
-5 0 5
10 0 5
-5 10 5
5 0 0
5 10 0
5 10 5
5 0 5
0 5 0
5 0 10
-5 5 0
-5 5 5
5 5 5
5 5 0
10 5 5
10 5 0
5 5 10
0 10 5
0 0 5
0 0 10
0 5 10

CELLS 30 150
4 24 23 3 25 
4 24 25 21 14 
4 18 17 11 10 
4 9 12 17 18 
4 3 25 21 17 
4 15 16 8 1 
4 24 23 12 14 
4 0 6 16 15 
4 4 23 3 13 
4 9 12 7 2 
4 4 13 18 9 
4 22 3 17 11 
4 4 23 12 9 
4 0 15 13 4 
4 23 3 17 12 
4 5 13 18 10 
4 6 16 3 23 
4 7 12 17 19 
4 2 7 19 20 
4 2 9 18 20 
4 18 17 19 20 
4 8 16 3 22 
4 12 14 21 17 
4 13 3 17 18 
4 15 16 3 13 
4 5 22 11 10 
4 0 6 23 4 
4 1 8 22 5 
4 13 3 22 5 
4 1 15 13 5 

CELL_TYPES 30
9 
9 
9 
9 
9 
9 
9 
9 
9 
9 
9 
9 
9 
9 
9 
9 
9 
9 
9 
9 
9 
9 
9 
9 
9 
9 
9 
9 
9 
9 
POINT_DATA 26
SCALARS GMDS_ID int 1
LOOKUP_TABLE default
0 1 3 5 6 7 8 9 11 12 13 14 15 16 17 18 19 20 21 22 23 25 26 27 28 29 
SCALARS geom_link_dim int 1
LOOKUP_TABLE default
1 0 1 1 2 1 1 1 0 2 1 1 1 1 1 1 1 1 1 1 1 1 1 1 1 1 
SCALARS geom_link_id int 1
LOOKUP_TABLE default
5 -1 6 4 17 17 7 10 -1 17 16 22 9 18 8 19 13 12 15 20 14 11 21 1 2 3 


CELL_DATA 30
SCALARS GMDS_ID int 1
LOOKUP_TABLE default
3 4 5 6 9 11 13 14 16 18 19 20 21 22 23 25 26 29 31 33 35 37 38 39 41 43 44 45 46 47 

SCALARS geom_link_dim int 1
LOOKUP_TABLE default
0 0 0 0 0 0 0 0 0 0 0 0 0 0 0 0 0 0 0 0 0 0 0 0 0 0 0 0 0 0 

SCALARS geom_link_id int 1
LOOKUP_TABLE default
0 0 0 0 0 0 0 0 0 0 0 0 0 0 0 0 0 0 0 0 0 0 0 0 0 0 0 0 0 0 

