# vtk DataFile Version 3.0
Generated by GMDS VTK Writer

ASCII
DATASET UNSTRUCTURED_GRID
POINTS 24 float
-5 0 0
10 0 0
0 10 0
8.88178419700125e-16 0 0
0 0 10
10 5 0
0 5 10
0 5 0
-5 5 0
5 5 0
5 5 10
5 10 0
5 0 0
5 0 10
10 5 5
5 5 5
5 10 5
-5 0 5
0 0 5
0 5 5
-5 5 5
0 10 5
10 0 5
5 0 5

CELLS 26 130
4 9 11 16 15 
4 5 9 15 14 
4 0 3 7 8 
4 11 9 7 2 
4 13 10 6 4 
4 1 5 9 12 
4 12 9 7 3 
4 0 3 18 17 
4 3 7 19 18 
4 18 19 6 4 
4 7 8 20 19 
4 0 8 20 17 
4 17 18 19 20 
4 2 7 19 21 
4 7 9 15 19 
4 19 15 10 6 
4 2 11 16 21 
4 16 15 19 21 
4 1 5 14 22 
4 9 12 23 15 
4 15 23 13 10 
4 1 12 23 22 
4 22 14 15 23 
4 3 12 23 18 
4 18 23 13 4 
4 23 15 19 18 

CELL_TYPES 26
9 
9 
9 
9 
9 
9 
9 
9 
9 
9 
9 
9 
9 
9 
9 
9 
9 
9 
9 
9 
9 
9 
9 
9 
9 
9 
POINT_DATA 24
SCALARS GMDS_ID int 1
LOOKUP_TABLE default
0 3 8 9 10 12 14 15 17 18 19 21 22 23 25 26 27 28 29 30 31 32 34 35 
SCALARS geom_link_dim_0 int 1
LOOKUP_TABLE default
0 0 0 0 0 0 0 0 0 0 0 0 0 0 0 0 0 0 0 0 0 0 0 0 
SCALARS geom_link_id_0 int 1
LOOKUP_TABLE default
0 0 0 0 0 0 0 0 0 0 0 0 0 0 0 0 0 0 0 0 0 0 0 0 


CELL_DATA 26
SCALARS GMDS_ID int 1
LOOKUP_TABLE default
8 17 24 27 32 33 34 38 40 41 42 44 46 47 54 55 56 58 59 61 62 63 65 66 67 68 

SCALARS geom_link_dim_0 int 1
LOOKUP_TABLE default
0 0 0 0 0 0 0 0 0 0 0 0 0 0 0 0 0 0 0 0 0 0 0 0 0 0 

SCALARS geom_link_id_0 int 1
LOOKUP_TABLE default
0 0 0 0 0 0 0 0 0 0 0 0 0 0 0 0 0 0 0 0 0 0 0 0 0 0 

