# vtk DataFile Version 3.0
Generated by GMDS VTK Writer

ASCII
DATASET UNSTRUCTURED_GRID
POINTS 24 float
-5 0 0
10 0 0
0 5 5
-4.44089209850063e-16 0 0
0 10 0
-5 0 5
10 0 5
5 0 0
5 10 0
5 10 5
5 0 5
0 5 0
5 0 10
-5 5 0
-5 5 5
5 5 5
5 5 0
10 5 5
10 5 0
5 5 10
0 10 5
0 0 5
0 0 10
0 5 10

CELLS 26 130
4 22 21 2 23 
4 22 23 19 12 
4 16 15 9 8 
4 7 10 15 16 
4 2 23 19 15 
4 22 21 10 12 
4 0 5 14 13 
4 3 21 2 11 
4 7 10 6 1 
4 3 11 16 7 
4 20 2 15 9 
4 3 21 10 7 
4 0 13 11 3 
4 21 2 15 10 
4 4 11 16 8 
4 5 14 2 21 
4 6 10 15 17 
4 1 6 17 18 
4 1 7 16 18 
4 16 15 17 18 
4 10 12 19 15 
4 11 2 15 16 
4 13 14 2 11 
4 4 20 9 8 
4 0 5 21 3 
4 11 2 20 4 

CELL_TYPES 26
9 
9 
9 
9 
9 
9 
9 
9 
9 
9 
9 
9 
9 
9 
9 
9 
9 
9 
9 
9 
9 
9 
9 
9 
9 
9 
POINT_DATA 24
SCALARS GMDS_ID int 1
LOOKUP_TABLE default
0 3 5 6 7 8 9 12 13 14 15 16 17 18 19 20 21 22 23 25 26 27 28 29 
SCALARS geom_link_dim int 1
LOOKUP_TABLE default
1 1 1 2 1 1 1 2 1 1 1 1 1 1 1 1 1 1 1 1 1 1 1 1 
SCALARS geom_link_id int 1
LOOKUP_TABLE default
5 6 4 17 17 7 10 17 16 22 9 18 8 19 13 12 15 20 14 11 21 1 2 3 


CELL_DATA 26
SCALARS GMDS_ID int 1
LOOKUP_TABLE default
3 4 5 6 9 13 14 16 18 19 20 21 22 23 25 26 29 31 33 35 38 39 41 43 44 46 

SCALARS geom_link_dim int 1
LOOKUP_TABLE default
3 3 3 3 3 3 3 4 3 3 3 3 3 4 3 3 3 3 3 3 3 4 3 3 3 3 

SCALARS geom_link_id int 1
LOOKUP_TABLE default
16 8 4 1 13 2 7 1 2 1 9 2 1 1 1 12 15 14 1 10 11 1 5 3 2 6 

