# vtk DataFile Version 3.0
Generated by GMDS VTK Writer

ASCII
DATASET UNSTRUCTURED_GRID
POINTS 25 float
-5 0 0
-5 10 0
10 10 0
10 0 0
-5 10 10
10 0 10
-5 0 5
10 0 5
10 10 5
-5 10 5
-5 5 0
10 5 0
10 5 5
-5 5 5
10 5 10
-5 5 10
-8.88178419700125e-16 0 0
0 0 5
0 5 5
0 5 0
0 10 5
0 10 0
0 0 10
0 5 10
-8.88178419700125e-16 10 10

CELLS 30 150
4 0 10 19 16 
4 11 12 8 2 
4 3 7 12 11 
4 19 18 12 11 
4 10 13 18 19 
4 17 18 12 7 
4 6 13 18 17 
4 16 17 7 3 
4 0 6 17 16 
4 0 6 13 10 
4 10 13 9 1 
4 5 7 12 14 
4 15 13 9 4 
4 16 19 11 3 
4 16 17 18 19 
4 9 13 18 20 
4 20 18 12 8 
4 1 9 20 21 
4 21 20 8 2 
4 1 10 19 21 
4 21 19 11 2 
4 19 18 20 21 
4 22 17 7 5 
4 13 15 23 18 
4 18 23 14 12 
4 22 23 14 5 
4 22 17 18 23 
4 4 9 20 24 
4 4 15 23 24 
4 23 18 20 24 

CELL_TYPES 30
9 
9 
9 
9 
9 
9 
9 
9 
9 
9 
9 
9 
9 
9 
9 
9 
9 
9 
9 
9 
9 
9 
9 
9 
9 
9 
9 
9 
9 
9 
POINT_DATA 25
SCALARS GMDS_ID int 1
LOOKUP_TABLE default
0 1 2 3 5 7 8 9 10 11 12 13 14 15 16 17 18 19 20 21 22 23 24 25 26 
SCALARS geom_link_dim int 1
LOOKUP_TABLE default
1 0 0 1 0 0 1 1 0 0 1 1 1 1 0 0 2 1 1 1 1 1 1 1 0 
SCALARS geom_link_id int 1
LOOKUP_TABLE default
5 -1 -1 6 -1 -1 7 10 -1 -1 19 14 20 13 -1 -1 17 1 4 18 21 17 2 3 -1 


CELL_DATA 30
SCALARS GMDS_ID int 1
LOOKUP_TABLE default
0 1 2 5 8 9 12 13 14 17 18 20 25 27 28 29 30 31 32 33 34 35 37 38 39 41 42 43 45 47 

SCALARS geom_link_dim int 1
LOOKUP_TABLE default
0 0 0 0 0 0 0 0 0 0 0 0 0 0 0 0 0 0 0 0 0 0 0 0 0 0 0 0 0 0 

SCALARS geom_link_id int 1
LOOKUP_TABLE default
0 0 0 0 0 0 0 0 0 0 0 0 0 0 0 0 0 0 0 0 0 0 0 0 0 0 0 0 0 0 

