# vtk DataFile Version 3.0
Generated by GMDS VTK Writer

ASCII
DATASET UNSTRUCTURED_GRID
POINTS 24 float
-5 0 0
10 0 0
5 10 0
5 0 0
5 0 10
0 10 0
8.88178419700125e-16 0 0
0 0 10
0 10 5
0 0 5
-5 0 5
5 10 5
5 0 5
10 0 5
-5 5 5
0 5 5
0 5 10
-5 5 0
0 5 0
5 5 0
5 5 5
5 5 10
10 5 0
10 5 5

CELLS 26 130
4 0 6 18 17 
4 0 6 9 10 
4 7 9 15 16 
4 9 10 14 15 
4 3 6 9 12 
4 12 9 7 4 
4 2 5 8 11 
4 1 3 12 13 
4 6 9 15 18 
4 18 15 8 5 
4 0 10 14 17 
4 17 18 15 14 
4 3 6 18 19 
4 19 18 5 2 
4 9 12 20 15 
4 15 20 11 8 
4 3 12 20 19 
4 19 20 11 2 
4 19 18 15 20 
4 4 7 16 21 
4 4 12 20 21 
4 20 15 16 21 
4 1 3 19 22 
4 12 13 23 20 
4 1 13 23 22 
4 22 19 20 23 

CELL_TYPES 26
9 
9 
9 
9 
9 
9 
9 
9 
9 
9 
9 
9 
9 
9 
9 
9 
9 
9 
9 
9 
9 
9 
9 
9 
9 
9 
POINT_DATA 24
SCALARS GMDS_ID int 1
LOOKUP_TABLE default
0 3 8 9 10 12 13 14 16 17 18 20 21 23 24 25 26 28 29 30 31 32 33 34 
SCALARS geom_link_dim int 1
LOOKUP_TABLE default
1 1 1 2 1 1 2 1 1 1 1 1 1 1 1 1 1 1 1 1 1 1 1 1 
SCALARS geom_link_id int 1
LOOKUP_TABLE default
5 6 16 17 8 17 17 2 21 1 7 22 9 10 13 4 3 19 18 15 12 11 14 20 


CELL_DATA 26
SCALARS GMDS_ID int 1
LOOKUP_TABLE default
0 9 17 19 27 28 29 34 40 41 42 44 45 46 47 48 49 50 51 52 54 56 57 59 61 63 

SCALARS geom_link_dim int 1
LOOKUP_TABLE default
3 3 3 3 3 3 3 3 4 3 3 3 3 3 4 3 4 3 4 3 3 3 3 3 3 3 

SCALARS geom_link_id int 1
LOOKUP_TABLE default
1 2 16 12 2 2 3 2 1 6 7 5 1 1 1 9 1 4 1 8 11 13 1 15 14 10 

