# vtk DataFile Version 3.0
Generated by GMDS VTK Writer

ASCII
DATASET UNSTRUCTURED_GRID
POINTS 34 float
-5 0 0
-5 10 0
10 10 0
10 0 0
-5 0 10
10 0 10
5 10 0
5 0 0
5 0 10
5 10 10
0 10 0
8.88178419700125e-16 0 0
0 0 10
8.88178419700125e-16 10 10
0 10 5
0 0 5
-5 0 5
-5 10 5
5 10 5
5 0 5
10 10 5
10 0 5
-5 5 5
0 5 5
0 5 10
-5 5 10
-5 5 0
0 5 0
5 5 0
5 5 5
5 5 10
10 5 0
10 5 5
10 5 10

CELLS 46 230
4 0 11 27 26 
4 22 23 24 25 
4 4 16 22 25 
4 16 15 12 4 
4 0 11 15 16 
4 4 12 24 25 
4 24 23 14 13 
4 12 15 23 24 
4 23 22 17 14 
4 15 16 22 23 
4 1 10 14 17 
4 7 11 15 19 
4 19 15 12 8 
4 6 10 14 18 
4 18 14 13 9 
4 3 7 19 21 
4 21 19 8 5 
4 2 6 18 20 
4 26 27 10 1 
4 11 15 23 27 
4 27 23 14 10 
4 0 16 22 26 
4 26 22 17 1 
4 26 27 23 22 
4 7 11 27 28 
4 28 27 10 6 
4 15 19 29 23 
4 23 29 18 14 
4 7 19 29 28 
4 28 29 18 6 
4 28 27 23 29 
4 8 12 24 30 
4 30 24 13 9 
4 8 19 29 30 
4 30 29 18 9 
4 29 23 24 30 
4 3 7 28 31 
4 31 28 6 2 
4 19 21 32 29 
4 29 32 20 18 
4 3 21 32 31 
4 31 32 20 2 
4 31 28 29 32 
4 5 8 30 33 
4 5 21 32 33 
4 32 29 30 33 

CELL_TYPES 46
9 
9 
9 
9 
9 
9 
9 
9 
9 
9 
9 
9 
9 
9 
9 
9 
9 
9 
9 
9 
9 
9 
9 
9 
9 
9 
9 
9 
9 
9 
9 
9 
9 
9 
9 
9 
9 
9 
9 
9 
9 
9 
9 
9 
9 
9 
POINT_DATA 34
SCALARS GMDS_ID int 1
LOOKUP_TABLE default
0 1 2 3 4 7 8 9 10 11 12 13 14 15 16 17 18 19 20 21 22 23 24 25 26 27 28 29 30 31 32 33 34 35 
SCALARS geom_link_dim int 1
LOOKUP_TABLE default
1 0 0 1 0 0 1 2 1 0 1 2 1 0 1 1 1 0 1 1 0 1 1 1 1 0 1 1 1 1 1 1 1 0 
SCALARS geom_link_id int 1
LOOKUP_TABLE default
5 -1 -1 6 -1 -1 16 17 8 -1 17 17 2 -1 21 1 7 -1 22 9 -1 10 13 4 3 -1 19 18 15 12 11 14 20 -1 


CELL_DATA 46
SCALARS GMDS_ID int 1
LOOKUP_TABLE default
0 1 3 7 9 12 14 17 18 19 22 27 28 29 30 34 35 36 39 40 41 42 43 44 45 46 47 48 49 50 51 52 53 54 55 56 57 58 59 60 61 62 63 64 66 68 

SCALARS geom_link_dim int 1
LOOKUP_TABLE default
0 0 0 0 0 0 0 0 0 0 0 0 0 0 0 0 0 0 0 0 0 0 0 0 0 0 0 0 0 0 0 0 0 0 0 0 0 0 0 0 0 0 0 0 0 0 

SCALARS geom_link_id int 1
LOOKUP_TABLE default
0 0 0 0 0 0 0 0 0 0 0 0 0 0 0 0 0 0 0 0 0 0 0 0 0 0 0 0 0 0 0 0 0 0 0 0 0 0 0 0 0 0 0 0 0 0 

