# vtk DataFile Version 3.0
Generated by GMDS VTK Writer

ASCII
DATASET UNSTRUCTURED_GRID
POINTS 30 float
-5 0 0
-5 10 0
10 10 0
10 0 0
-5 0 10
5 10 0
5 0 0
5 0 10
0 10 0
8.88178419700125e-16 0 0
0 0 10
0 10 5
0 0 5
-5 0 5
-5 10 5
5 10 5
5 0 5
10 10 5
10 0 5
-5 5 5
0 5 5
0 5 10
-5 5 10
-5 5 0
0 5 0
5 5 0
5 5 5
5 5 10
10 5 0
10 5 5

CELLS 38 190
4 0 9 24 23 
4 19 20 21 22 
4 4 13 19 22 
4 13 12 10 4 
4 0 9 12 13 
4 4 10 21 22 
4 10 12 20 21 
4 20 19 14 11 
4 12 13 19 20 
4 1 8 11 14 
4 6 9 12 16 
4 16 12 10 7 
4 5 8 11 15 
4 3 6 16 18 
4 2 5 15 17 
4 23 24 8 1 
4 9 12 20 24 
4 24 20 11 8 
4 0 13 19 23 
4 23 19 14 1 
4 23 24 20 19 
4 6 9 24 25 
4 25 24 8 5 
4 12 16 26 20 
4 20 26 15 11 
4 6 16 26 25 
4 25 26 15 5 
4 25 24 20 26 
4 7 10 21 27 
4 7 16 26 27 
4 26 20 21 27 
4 3 6 25 28 
4 28 25 5 2 
4 16 18 29 26 
4 26 29 17 15 
4 3 18 29 28 
4 28 29 17 2 
4 28 25 26 29 

CELL_TYPES 38
9 
9 
9 
9 
9 
9 
9 
9 
9 
9 
9 
9 
9 
9 
9 
9 
9 
9 
9 
9 
9 
9 
9 
9 
9 
9 
9 
9 
9 
9 
9 
9 
9 
9 
9 
9 
9 
9 
POINT_DATA 30
SCALARS GMDS_ID int 1
LOOKUP_TABLE default
0 1 2 3 4 8 9 10 12 13 14 16 17 18 19 20 21 22 23 24 25 26 27 28 29 30 31 32 33 34 
SCALARS geom_link_dim int 1
LOOKUP_TABLE default
1 0 0 1 0 1 2 1 1 2 1 1 1 1 0 1 1 0 1 1 1 1 0 1 1 1 1 1 1 1 
SCALARS geom_link_id int 1
LOOKUP_TABLE default
5 -1 -1 6 -1 16 17 8 17 17 2 21 1 7 -1 22 9 -1 10 13 4 3 -1 19 18 15 12 11 14 20 


CELL_DATA 38
SCALARS GMDS_ID int 1
LOOKUP_TABLE default
0 1 3 7 9 12 17 18 19 22 27 28 29 34 36 39 40 41 42 43 44 45 46 47 48 49 50 51 52 54 56 57 58 59 60 61 62 63 

SCALARS geom_link_dim int 1
LOOKUP_TABLE default
0 0 0 0 0 0 0 0 0 0 0 0 0 0 0 0 0 0 0 0 0 0 0 0 0 0 0 0 0 0 0 0 0 0 0 0 0 0 

SCALARS geom_link_id int 1
LOOKUP_TABLE default
0 0 0 0 0 0 0 0 0 0 0 0 0 0 0 0 0 0 0 0 0 0 0 0 0 0 0 0 0 0 0 0 0 0 0 0 0 0 

