# vtk DataFile Version 3.0
Generated by GMDS VTK Writer

ASCII
DATASET UNSTRUCTURED_GRID
POINTS 20 float
-5 0 0
-5 10 0
10 10 0
10 0 0
0 10 0
-4.44089209850063e-16 0 0
-5 0 5
10 0 5
10 10 5
-5 10 5
5 0 0
5 10 0
5 10 5
5 0 5
5 10 10
5 0 10
0 10 5
0 0 5
-4.44089209850063e-16 10 10
0 0 10

CELLS 21 105
4 11 12 8 2 
4 10 11 2 3 
4 2 3 7 8 
4 0 1 4 5 
4 0 1 9 6 
4 13 12 8 7 
4 10 13 7 3 
4 10 11 12 13 
4 4 16 12 11 
4 1 9 16 4 
4 5 4 11 10 
4 13 12 14 15 
4 6 9 16 17 
4 17 16 12 13 
4 0 6 17 5 
4 5 17 13 10 
4 5 4 16 17 
4 18 16 12 14 
4 19 18 14 15 
4 19 17 13 15 
4 17 16 18 19 

CELL_TYPES 21
9 
9 
9 
9 
9 
9 
9 
9 
9 
9 
9 
9 
9 
9 
9 
9 
9 
9 
9 
9 
9 
POINT_DATA 20
SCALARS GMDS_ID int 1
LOOKUP_TABLE default
0 1 2 3 6 7 8 9 10 11 12 13 14 15 16 17 18 19 20 21 
SCALARS geom_link_dim int 1
LOOKUP_TABLE default
1 0 0 1 1 2 1 1 0 0 2 1 1 1 0 1 1 1 0 1 
SCALARS geom_link_id int 1
LOOKUP_TABLE default
5 -1 -1 6 17 17 7 10 -1 -1 17 16 22 9 -1 8 21 1 -1 2 


CELL_DATA 21
SCALARS GMDS_ID int 1
LOOKUP_TABLE default
0 1 2 3 4 6 7 8 9 10 11 12 13 14 15 16 17 19 21 23 24 

SCALARS geom_link_dim int 1
LOOKUP_TABLE default
0 0 0 0 0 0 0 0 0 0 0 0 0 0 0 0 0 0 0 0 0 

SCALARS geom_link_id int 1
LOOKUP_TABLE default
0 0 0 0 0 0 0 0 0 0 0 0 0 0 0 0 0 0 0 0 0 

