# vtk DataFile Version 3.0
Generated by GMDS VTK Writer

ASCII
DATASET UNSTRUCTURED_GRID
POINTS 24 float
-5 0 0
-5 10 0
10 5 5
10 0 0
-5 0 10
-5 10 10
10 0 5
10 0 10
-5 5 0
-5 5 10
10 5 10
10 5 0
5 0 0
5 0 10
5 5 10
5 5 0
5 10 10
5 10 0
5 5 5
5 0 5
-5 5 5
-5 0 5
5 10 5
-5 10 5

CELLS 29 145
4 13 14 9 4 
4 7 10 14 13 
4 20 18 14 9 
4 8 15 18 20 
4 6 2 18 19 
4 6 19 13 7 
4 2 18 14 10 
4 3 12 19 6 
4 19 18 14 13 
4 12 15 18 19 
4 3 11 15 12 
4 12 15 8 0 
4 11 15 18 2 
4 16 14 9 5 
4 6 2 10 7 
4 3 11 2 6 
4 17 15 8 1 
4 0 8 20 21 
4 21 20 9 4 
4 0 12 19 21 
4 21 19 13 4 
4 19 18 20 21 
4 15 17 22 18 
4 18 22 16 14 
4 1 8 20 23 
4 23 20 9 5 
4 1 17 22 23 
4 23 22 16 5 
4 22 18 20 23 

CELL_TYPES 29
9 
9 
9 
9 
9 
9 
9 
9 
9 
9 
9 
9 
9 
9 
9 
9 
9 
9 
9 
9 
9 
9 
9 
9 
9 
9 
9 
9 
9 
POINT_DATA 24
SCALARS GMDS_ID int 1
LOOKUP_TABLE default
0 1 2 3 4 5 6 7 8 9 10 11 12 13 14 15 16 17 18 19 20 21 22 23 
SCALARS geom_link_dim int 1
LOOKUP_TABLE default
1 0 1 1 0 0 1 0 1 0 0 1 2 1 1 1 0 1 1 1 1 1 1 0 
SCALARS geom_link_id int 1
LOOKUP_TABLE default
5 -1 20 6 -1 -1 10 -1 19 -1 -1 14 17 8 11 15 -1 16 12 9 13 7 22 -1 


CELL_DATA 29
SCALARS GMDS_ID int 1
LOOKUP_TABLE default
0 1 2 4 8 9 11 12 13 14 17 18 20 21 22 24 25 27 28 29 30 31 32 33 34 35 36 37 38 

SCALARS geom_link_dim int 1
LOOKUP_TABLE default
0 0 0 0 0 0 0 0 0 0 0 0 0 0 0 0 0 0 0 0 0 0 0 0 0 0 0 0 0 

SCALARS geom_link_id int 1
LOOKUP_TABLE default
0 0 -1 -1 -1 -1 -1 -1 -1 -1 0 0 -1 0 -1 -1 0 -1 -1 -1 -1 -1 -1 -1 -1 -1 -1 -1 -1 

