# vtk DataFile Version 3.0
Generated by GMDS VTK Writer

ASCII
DATASET UNSTRUCTURED_GRID
POINTS 28 float
-5 0 0
-5 10 0
10 10 0
10 0 0
0 5 5
-4.44089209850063e-16 0 0
0 10 0
-5 0 5
10 0 5
10 10 5
-5 10 5
5 0 0
5 10 0
5 10 5
5 0 5
0 5 0
5 0 10
-5 5 0
-5 5 5
5 5 5
5 5 0
10 5 5
10 5 0
5 5 10
0 10 5
0 0 5
0 0 10
0 5 10

CELLS 34 170
4 12 13 9 2 
4 26 25 4 27 
4 26 27 23 16 
4 20 19 13 12 
4 11 14 19 20 
4 4 27 23 19 
4 17 18 10 1 
4 26 25 14 16 
4 0 7 18 17 
4 5 25 4 15 
4 11 14 8 3 
4 5 15 20 11 
4 24 4 19 13 
4 5 25 14 11 
4 0 17 15 5 
4 25 4 19 14 
4 6 15 20 12 
4 7 18 4 25 
4 8 14 19 21 
4 21 19 13 9 
4 3 8 21 22 
4 22 21 9 2 
4 3 11 20 22 
4 22 20 12 2 
4 20 19 21 22 
4 10 18 4 24 
4 14 16 23 19 
4 15 4 19 20 
4 17 18 4 15 
4 6 24 13 12 
4 0 7 25 5 
4 1 10 24 6 
4 15 4 24 6 
4 1 17 15 6 

CELL_TYPES 34
9 
9 
9 
9 
9 
9 
9 
9 
9 
9 
9 
9 
9 
9 
9 
9 
9 
9 
9 
9 
9 
9 
9 
9 
9 
9 
9 
9 
9 
9 
9 
9 
9 
9 
POINT_DATA 28
SCALARS GMDS_ID int 1
LOOKUP_TABLE default
0 1 2 3 5 6 7 8 9 10 11 12 13 14 15 16 17 18 19 20 21 22 23 25 26 27 28 29 
SCALARS geom_link_dim int 1
LOOKUP_TABLE default
1 0 0 1 1 2 1 1 1 0 0 2 1 1 1 1 1 1 1 1 1 1 1 1 1 1 1 1 
SCALARS geom_link_id int 1
LOOKUP_TABLE default
5 -1 -1 6 4 17 17 7 10 -1 -1 17 16 22 9 18 8 19 13 12 15 20 14 11 21 1 2 3 


CELL_DATA 34
SCALARS GMDS_ID int 1
LOOKUP_TABLE default
1 3 4 5 6 9 11 13 14 16 18 19 20 21 22 23 25 26 29 30 31 32 33 34 35 37 38 39 41 43 44 45 46 47 

SCALARS geom_link_dim int 1
LOOKUP_TABLE default
0 0 0 0 0 0 0 0 0 0 0 0 0 0 0 0 0 0 0 0 0 0 0 0 0 0 0 0 0 0 0 0 0 0 

SCALARS geom_link_id int 1
LOOKUP_TABLE default
0 0 0 0 0 0 0 0 0 0 0 0 0 0 0 0 0 0 0 0 0 0 0 0 0 0 0 0 0 0 0 0 0 0 

