# vtk DataFile Version 3.0
Generated by GMDS VTK Writer

ASCII
DATASET UNSTRUCTURED_GRID
POINTS 22 float
-5 0 0
-5 10 0
10 5 5
10 0 0
-5 0 10
-5 10 10
10 0 5
-5 5 0
-5 5 10
10 5 0
5 0 0
5 0 10
5 5 10
5 5 0
5 10 10
5 10 0
5 5 5
5 0 5
-5 5 5
-5 0 5
5 10 5
-5 10 5

CELLS 25 125
4 11 12 8 4 
4 18 16 12 8 
4 7 13 16 18 
4 6 2 16 17 
4 3 10 17 6 
4 17 16 12 11 
4 10 13 16 17 
4 3 9 13 10 
4 10 13 7 0 
4 9 13 16 2 
4 14 12 8 5 
4 3 9 2 6 
4 15 13 7 1 
4 0 7 18 19 
4 19 18 8 4 
4 0 10 17 19 
4 19 17 11 4 
4 17 16 18 19 
4 13 15 20 16 
4 16 20 14 12 
4 1 7 18 21 
4 21 18 8 5 
4 1 15 20 21 
4 21 20 14 5 
4 20 16 18 21 

CELL_TYPES 25
9 
9 
9 
9 
9 
9 
9 
9 
9 
9 
9 
9 
9 
9 
9 
9 
9 
9 
9 
9 
9 
9 
9 
9 
9 
POINT_DATA 22
SCALARS GMDS_ID int 1
LOOKUP_TABLE default
0 1 2 3 4 5 6 8 9 11 12 13 14 15 16 17 18 19 20 21 22 23 
SCALARS geom_link_dim int 1
LOOKUP_TABLE default
1 0 1 1 0 0 1 1 0 1 2 1 1 1 0 1 1 1 1 1 1 0 
SCALARS geom_link_id int 1
LOOKUP_TABLE default
5 -1 20 6 -1 -1 10 19 -1 14 17 8 11 15 -1 16 12 9 13 7 22 -1 


CELL_DATA 25
SCALARS GMDS_ID int 1
LOOKUP_TABLE default
0 2 4 8 12 13 14 17 18 20 21 24 25 27 28 29 30 31 32 33 34 35 36 37 38 

SCALARS geom_link_dim int 1
LOOKUP_TABLE default
0 0 0 0 0 0 0 0 0 0 0 0 0 0 0 0 0 0 0 0 0 0 0 0 0 

SCALARS geom_link_id int 1
LOOKUP_TABLE default
0 0 0 0 0 0 0 0 0 0 0 0 0 0 0 0 0 0 0 0 0 0 0 0 0 

