# vtk DataFile Version 3.0
Generated by GMDS VTK Writer

ASCII
DATASET UNSTRUCTURED_GRID
POINTS 33 float
-5 0 0
10 0 0
-5 0 10
-5 10 10
10 10 10
0 10 0
8.88178419700125e-16 0 0
0 0 10
8.88178419700125e-16 10 10
10 5 0
10 5 10
0 5 10
0 5 0
-5 5 10
-5 5 0
5 5 0
5 5 10
5 10 10
5 10 0
5 0 0
5 0 10
10 10 5
10 5 5
5 5 5
5 10 5
-5 0 5
0 0 5
0 5 5
-5 5 5
0 10 5
-5 10 5
10 0 5
5 0 5

CELLS 43 215
4 23 24 17 16 
4 17 16 11 8 
4 15 18 24 23 
4 4 10 16 17 
4 22 23 16 10 
4 9 15 23 22 
4 21 22 10 4 
4 2 7 11 13 
4 13 11 8 3 
4 0 6 12 14 
4 18 15 12 5 
4 20 16 11 7 
4 1 9 15 19 
4 19 15 12 6 
4 21 24 17 4 
4 21 22 23 24 
4 0 6 26 25 
4 25 26 7 2 
4 6 12 27 26 
4 26 27 11 7 
4 12 14 28 27 
4 27 28 13 11 
4 0 14 28 25 
4 25 28 13 2 
4 25 26 27 28 
4 5 12 27 29 
4 29 27 11 8 
4 30 29 8 3 
4 30 28 13 3 
4 28 27 29 30 
4 12 15 23 27 
4 27 23 16 11 
4 5 18 24 29 
4 29 24 17 8 
4 24 23 27 29 
4 1 9 22 31 
4 15 19 32 23 
4 23 32 20 16 
4 1 19 32 31 
4 31 22 23 32 
4 6 19 32 26 
4 26 32 20 7 
4 32 23 27 26 

CELL_TYPES 43
9 
9 
9 
9 
9 
9 
9 
9 
9 
9 
9 
9 
9 
9 
9 
9 
9 
9 
9 
9 
9 
9 
9 
9 
9 
9 
9 
9 
9 
9 
9 
9 
9 
9 
9 
9 
9 
9 
9 
9 
9 
9 
9 
POINT_DATA 33
SCALARS GMDS_ID int 1
LOOKUP_TABLE default
0 3 4 5 6 8 9 10 11 12 13 14 15 16 17 18 19 20 21 22 23 24 25 26 27 28 29 30 31 32 33 34 35 
SCALARS geom_link_dim_0 int 1
LOOKUP_TABLE default
0 0 0 0 0 0 0 0 0 0 0 0 0 0 0 0 0 0 0 0 0 0 0 0 0 0 0 0 0 0 0 0 0 
SCALARS geom_link_id_0 int 1
LOOKUP_TABLE default
0 0 0 0 0 0 0 0 0 0 0 0 0 0 0 0 0 0 0 0 0 0 0 0 0 0 0 0 0 0 0 0 0 


CELL_DATA 43
SCALARS GMDS_ID int 1
LOOKUP_TABLE default
2 7 8 10 12 17 18 20 21 24 27 32 33 34 36 37 38 39 40 41 42 43 44 45 46 47 48 50 52 53 54 55 56 57 58 59 61 62 63 65 66 67 68 

SCALARS geom_link_dim_0 int 1
LOOKUP_TABLE default
0 0 0 0 0 0 0 0 0 0 0 0 0 0 0 0 0 0 0 0 0 0 0 0 0 0 0 0 0 0 0 0 0 0 0 0 0 0 0 0 0 0 0 

SCALARS geom_link_id_0 int 1
LOOKUP_TABLE default
0 0 0 0 0 0 0 0 0 0 0 0 0 0 0 0 0 0 0 0 0 0 0 0 0 0 0 0 0 0 0 0 0 0 0 0 0 0 0 0 0 0 0 

