# vtk DataFile Version 3.0
Generated by GMDS VTK Writer

ASCII
DATASET UNSTRUCTURED_GRID
POINTS 24 float
-5 0 0
10 0 0
-5 0 5
10 0 5
-8.88178419700125e-16 0 0
0 10 0
0 10 5
0 0 5
0 0 10
5 0 0
5 10 0
5 10 5
5 0 5
5 0 10
0 5 0
0 5 5
5 5 5
5 5 0
-5 5 0
-5 5 5
0 5 10
10 5 5
10 5 0
5 5 10

CELLS 26 130
4 4 7 12 9 
4 4 9 17 14 
4 17 16 11 10 
4 5 6 11 10 
4 9 12 16 17 
4 0 2 7 4 
4 15 16 11 6 
4 7 12 16 15 
4 14 15 6 5 
4 4 7 15 14 
4 9 12 3 1 
4 7 8 13 12 
4 14 17 10 5 
4 14 15 16 17 
4 0 2 19 18 
4 2 7 15 19 
4 0 4 14 18 
4 18 19 15 14 
4 7 8 20 15 
4 3 12 16 21 
4 1 3 21 22 
4 1 9 17 22 
4 17 16 21 22 
4 8 13 23 20 
4 12 13 23 16 
4 15 20 23 16 

CELL_TYPES 26
9 
9 
9 
9 
9 
9 
9 
9 
9 
9 
9 
9 
9 
9 
9 
9 
9 
9 
9 
9 
9 
9 
9 
9 
9 
9 
POINT_DATA 24
SCALARS GMDS_ID int 1
LOOKUP_TABLE default
0 3 8 9 12 13 14 15 17 18 19 20 21 23 24 25 26 27 28 29 31 32 33 34 
SCALARS geom_link_dim_0 int 1
LOOKUP_TABLE default
0 0 0 0 0 0 0 0 0 0 0 0 0 0 0 0 0 0 0 0 0 0 0 0 
SCALARS geom_link_id_0 int 1
LOOKUP_TABLE default
0 0 0 0 0 0 0 0 0 0 0 0 0 0 0 0 0 0 0 0 0 0 0 0 


CELL_DATA 26
SCALARS GMDS_ID int 1
LOOKUP_TABLE default
0 1 3 10 16 17 18 21 23 25 27 33 36 37 38 40 42 44 47 52 54 56 58 59 61 63 

SCALARS geom_link_dim_0 int 1
LOOKUP_TABLE default
0 0 0 0 0 0 0 0 0 0 0 0 0 0 0 0 0 0 0 0 0 0 0 0 0 0 

SCALARS geom_link_id_0 int 1
LOOKUP_TABLE default
0 0 0 0 0 0 0 0 0 0 0 0 0 0 0 0 0 0 0 0 0 0 0 0 0 0 

