# vtk DataFile Version 3.0
Generated by GMDS VTK Writer

ASCII
DATASET UNSTRUCTURED_GRID
POINTS 33 float
-5 0 0
-5 10 0
10 10 0
10 0 0
-5 0 10
-5 10 10
-5 5 5
-5 5 0
-5 0 5
10 0 5
10 10 5
-5 10 5
5 0 0
5 10 0
5 10 5
5 0 5
5 10 10
5 0 10
-4.44089209850063e-16 0 0
0 10 0
0 10 5
0 0 5
-4.44089209850063e-16 10 10
0 0 10
0 5 5
0 5 0
5 5 0
5 5 5
10 5 5
10 5 0
-5 5 10
0 5 10
5 5 10

CELLS 45 225
4 0 8 21 18 
4 13 14 10 2 
4 26 27 14 13 
4 12 15 27 26 
4 19 20 14 13 
4 6 24 20 11 
4 1 11 20 19 
4 7 6 24 25 
4 7 25 19 1 
4 12 15 9 3 
4 0 18 25 7 
4 8 21 24 6 
4 25 24 20 19 
4 7 6 11 1 
4 18 21 24 25 
4 0 8 6 7 
4 18 21 15 12 
4 5 11 20 22 
4 22 20 14 16 
4 4 8 21 23 
4 23 21 15 17 
4 9 15 27 28 
4 28 27 14 10 
4 3 9 28 29 
4 29 28 10 2 
4 3 12 26 29 
4 29 26 13 2 
4 26 27 28 29 
4 15 21 24 27 
4 27 24 20 14 
4 12 18 25 26 
4 26 25 19 13 
4 25 24 27 26 
4 4 8 6 30 
4 30 6 11 5 
4 21 23 31 24 
4 24 31 22 20 
4 4 23 31 30 
4 30 31 22 5 
4 30 6 24 31 
4 15 17 32 27 
4 27 32 16 14 
4 17 23 31 32 
4 32 31 22 16 
4 31 24 27 32 

CELL_TYPES 45
9 
9 
9 
9 
9 
9 
9 
9 
9 
9 
9 
9 
9 
9 
9 
9 
9 
9 
9 
9 
9 
9 
9 
9 
9 
9 
9 
9 
9 
9 
9 
9 
9 
9 
9 
9 
9 
9 
9 
9 
9 
9 
9 
9 
9 
POINT_DATA 33
SCALARS GMDS_ID int 1
LOOKUP_TABLE default
0 1 2 3 4 5 6 7 8 9 10 11 12 13 14 15 16 17 18 19 20 21 22 23 24 25 26 27 28 29 30 31 32 
SCALARS geom_link_dim_0 int 1
LOOKUP_TABLE default
0 0 0 0 0 0 0 0 0 0 0 0 0 0 0 0 0 0 0 0 0 0 0 0 0 0 0 0 0 0 0 0 0 
SCALARS geom_link_id_0 int 1
LOOKUP_TABLE default
0 0 0 0 0 0 0 0 0 0 0 0 0 0 0 0 0 0 0 0 0 0 0 0 0 0 0 0 0 0 0 0 0 


CELL_DATA 45
SCALARS GMDS_ID int 1
LOOKUP_TABLE default
0 1 2 4 7 9 10 15 17 18 20 21 22 23 24 25 27 29 30 33 34 36 37 38 39 40 41 42 43 44 45 46 47 48 49 50 51 52 53 54 55 56 57 58 59 

SCALARS geom_link_dim_0 int 1
LOOKUP_TABLE default
0 0 0 0 0 0 0 0 0 0 0 0 0 0 0 0 0 0 0 0 0 0 0 0 0 0 0 0 0 0 0 0 0 0 0 0 0 0 0 0 0 0 0 0 0 

SCALARS geom_link_id_0 int 1
LOOKUP_TABLE default
0 0 0 0 0 0 0 0 0 0 0 0 0 0 0 0 0 0 0 0 0 0 0 0 0 0 0 0 0 0 0 0 0 0 0 0 0 0 0 0 0 0 0 0 0 

