# vtk DataFile Version 3.0
Generated by GMDS VTK Writer

ASCII
DATASET UNSTRUCTURED_GRID
POINTS 30 float
-5 0 0
-5 10 0
10 10 0
10 0 0
5 5 5
10 5 5
5 10 0
5 0 0
5 0 10
5 10 10
10 10 5
10 0 5
5 0 5
5 10 5
-5 0 5
-5 10 5
8.88178419700125e-16 0 0
0 10 0
0 10 5
0 0 5
8.88178419700125e-16 10 10
0 0 10
5 5 10
-5 5 0
-5 5 5
0 5 5
0 5 0
10 5 0
5 5 0
0 5 10

CELLS 38 190
4 0 14 19 16 
4 3 7 12 11 
4 23 24 15 1 
4 17 18 13 6 
4 0 14 24 23 
4 1 15 18 17 
4 2 6 13 10 
4 22 4 13 9 
4 16 19 12 7 
4 8 12 4 22 
4 20 18 13 9 
4 5 4 13 10 
4 11 12 4 5 
4 21 19 12 8 
4 14 19 25 24 
4 24 25 18 15 
4 16 19 25 26 
4 26 25 18 17 
4 0 16 26 23 
4 23 26 17 1 
4 23 24 25 26 
4 3 7 28 27 
4 27 28 6 2 
4 7 12 4 28 
4 28 4 13 6 
4 3 11 5 27 
4 27 5 10 2 
4 27 28 4 5 
4 12 19 25 4 
4 4 25 18 13 
4 7 16 26 28 
4 28 26 17 6 
4 26 25 4 28 
4 19 21 29 25 
4 25 29 20 18 
4 8 21 29 22 
4 22 29 20 9 
4 29 25 4 22 

CELL_TYPES 38
9 
9 
9 
9 
9 
9 
9 
9 
9 
9 
9 
9 
9 
9 
9 
9 
9 
9 
9 
9 
9 
9 
9 
9 
9 
9 
9 
9 
9 
9 
9 
9 
9 
9 
9 
9 
9 
9 
POINT_DATA 30
SCALARS GMDS_ID int 1
LOOKUP_TABLE default
0 1 2 3 4 5 8 9 10 11 12 13 14 15 16 17 18 19 20 21 22 23 24 26 27 28 29 30 31 32 
SCALARS geom_link_dim int 1
LOOKUP_TABLE default
1 0 0 1 1 1 1 2 1 0 0 1 1 1 1 0 2 1 1 1 0 1 1 1 1 1 1 1 1 1 
SCALARS geom_link_id int 1
LOOKUP_TABLE default
5 -1 -1 6 12 20 16 17 8 -1 -1 10 9 22 7 -1 17 17 21 1 -1 2 11 19 13 4 18 14 15 3 


CELL_DATA 38
SCALARS GMDS_ID int 1
LOOKUP_TABLE default
1 2 7 9 11 12 17 23 27 29 30 31 33 34 36 37 38 39 40 41 42 43 44 45 46 47 48 49 50 51 52 53 54 55 56 57 58 59 

SCALARS geom_link_dim int 1
LOOKUP_TABLE default
0 0 0 0 0 0 0 0 0 0 0 0 0 0 0 0 0 0 0 0 0 0 0 0 0 0 0 0 0 0 0 0 0 0 0 0 0 0 

SCALARS geom_link_id int 1
LOOKUP_TABLE default
0 0 0 0 0 0 0 0 0 0 0 0 0 0 0 0 0 0 0 0 0 0 0 0 0 0 0 0 0 0 0 0 0 0 0 0 0 0 

