# vtk DataFile Version 3.0
Generated by GMDS VTK Writer

ASCII
DATASET UNSTRUCTURED_GRID
POINTS 28 float
-5 0 0
-5 10 0
10 0 0
5 5 5
5 5 0
0 10 0
-4.44089209850063e-16 0 0
-5 0 5
10 0 5
-5 10 5
5 0 0
5 10 0
5 10 5
5 0 5
5 10 10
5 0 10
0 10 5
0 0 5
-4.44089209850063e-16 10 10
0 0 10
10 5 5
10 5 0
-5 5 0
-5 5 5
0 5 5
0 5 0
0 5 10
5 5 10

CELLS 34 170
4 10 13 8 2 
4 5 16 12 11 
4 1 9 16 5 
4 0 7 17 6 
4 6 17 13 10 
4 8 13 3 20 
4 18 16 12 14 
4 4 3 12 11 
4 10 13 3 4 
4 19 17 13 15 
4 2 8 20 21 
4 2 10 4 21 
4 4 3 20 21 
4 0 7 23 22 
4 22 23 9 1 
4 7 17 24 23 
4 23 24 16 9 
4 6 17 24 25 
4 25 24 16 5 
4 0 6 25 22 
4 22 25 5 1 
4 22 23 24 25 
4 13 17 24 3 
4 3 24 16 12 
4 6 10 4 25 
4 25 4 11 5 
4 25 24 3 4 
4 17 19 26 24 
4 24 26 18 16 
4 13 15 27 3 
4 3 27 14 12 
4 15 19 26 27 
4 27 26 18 14 
4 26 24 3 27 

CELL_TYPES 34
9 
9 
9 
9 
9 
9 
9 
9 
9 
9 
9 
9 
9 
9 
9 
9 
9 
9 
9 
9 
9 
9 
9 
9 
9 
9 
9 
9 
9 
9 
9 
9 
9 
9 
POINT_DATA 28
SCALARS GMDS_ID int 1
LOOKUP_TABLE default
0 1 3 4 5 6 7 8 9 11 12 13 14 15 16 17 18 19 20 21 22 23 24 25 26 27 28 29 
SCALARS geom_link_dim int 1
LOOKUP_TABLE default
1 0 1 1 1 1 2 1 1 0 2 1 1 1 0 1 1 1 0 1 1 1 1 1 1 1 1 1 
SCALARS geom_link_id int 1
LOOKUP_TABLE default
5 -1 6 12 15 17 17 7 10 -1 17 16 22 9 -1 8 21 1 -1 2 20 14 19 13 4 18 3 11 


CELL_DATA 34
SCALARS GMDS_ID int 1
LOOKUP_TABLE default
2 3 4 5 6 7 8 9 10 11 12 14 16 17 18 19 20 21 22 23 24 25 26 27 28 29 30 31 32 33 34 35 36 37 

SCALARS geom_link_dim int 1
LOOKUP_TABLE default
0 0 0 0 0 0 0 0 0 0 0 0 0 0 0 0 0 0 0 0 0 0 0 0 0 0 0 0 0 0 0 0 0 0 

SCALARS geom_link_id int 1
LOOKUP_TABLE default
0 0 0 0 0 0 0 0 0 0 0 0 0 0 0 0 0 0 0 0 0 0 0 0 0 0 0 0 0 0 0 0 0 0 

