# vtk DataFile Version 3.0
Generated by GMDS VTK Writer

ASCII
DATASET UNSTRUCTURED_GRID
POINTS 31 float
-5 0 0
-5 10 0
10 5 5
10 0 0
-5 0 10
-5 10 10
10 0 5
0 5 0
-5 5 0
-5 5 10
8.88178419700125e-16 0 0
10 5 0
5 0 0
5 0 10
5 5 10
5 5 0
5 10 10
5 10 0
5 5 5
5 0 5
-5 5 5
-5 0 5
5 10 5
-5 10 5
0 5 5
0 0 5
0 5 10
0 0 10
0 10 0
0 10 5
8.88178419700125e-16 10 10

CELLS 41 205
4 7 24 18 15 
4 4 21 25 27 
4 27 26 14 13 
4 4 9 26 27 
4 26 24 18 14 
4 6 2 18 19 
4 0 8 7 10 
4 9 20 24 26 
4 10 7 15 12 
4 3 12 19 6 
4 19 18 14 13 
4 12 15 18 19 
4 10 7 24 25 
4 10 25 19 12 
4 3 11 15 12 
4 0 21 25 10 
4 11 15 18 2 
4 8 20 24 7 
4 24 25 19 18 
4 3 11 2 6 
4 20 21 25 24 
4 0 8 20 21 
4 21 20 9 4 
4 15 17 22 18 
4 18 22 16 14 
4 1 8 20 23 
4 23 20 9 5 
4 27 25 19 13 
4 25 24 26 27 
4 1 8 7 28 
4 28 7 15 17 
4 20 23 29 24 
4 24 29 22 18 
4 1 23 29 28 
4 28 29 22 17 
4 28 7 24 29 
4 5 9 26 30 
4 30 26 14 16 
4 5 23 29 30 
4 30 29 22 16 
4 29 24 26 30 

CELL_TYPES 41
9 
9 
9 
9 
9 
9 
9 
9 
9 
9 
9 
9 
9 
9 
9 
9 
9 
9 
9 
9 
9 
9 
9 
9 
9 
9 
9 
9 
9 
9 
9 
9 
9 
9 
9 
9 
9 
9 
9 
9 
9 
POINT_DATA 31
SCALARS GMDS_ID int 1
LOOKUP_TABLE default
0 1 2 3 4 5 6 7 8 9 10 11 12 13 14 15 16 17 18 19 20 21 22 23 24 25 26 27 28 29 30 
SCALARS geom_link_dim int 1
LOOKUP_TABLE default
1 0 1 1 0 0 1 1 1 0 2 1 2 1 1 1 0 1 1 1 1 1 1 0 0 1 1 1 1 1 0 
SCALARS geom_link_id int 1
LOOKUP_TABLE default
5 -1 20 6 -1 -1 10 18 19 -1 17 14 17 8 11 15 -1 16 12 9 13 7 22 -1 -1 1 3 2 17 21 -1 


CELL_DATA 41
SCALARS GMDS_ID int 1
LOOKUP_TABLE default
1 3 5 6 7 8 9 10 11 12 13 14 15 16 17 19 20 22 23 24 26 27 28 32 33 34 35 39 40 41 42 43 44 45 46 47 48 49 50 51 52 

SCALARS geom_link_dim int 1
LOOKUP_TABLE default
0 0 0 0 0 0 0 0 0 0 0 0 0 0 0 0 0 0 0 0 0 0 0 0 0 0 0 0 0 0 0 0 0 0 0 0 0 0 0 0 0 

SCALARS geom_link_id int 1
LOOKUP_TABLE default
-1 -1 -1 -1 -1 0 -1 -1 -1 0 0 0 -1 -1 0 -1 0 -1 -1 0 -1 0 0 0 0 0 0 -1 -1 -1 -1 -1 -1 -1 -1 -1 -1 -1 -1 -1 -1 

