# vtk DataFile Version 3.0
Generated by GMDS VTK Writer

ASCII
DATASET UNSTRUCTURED_GRID
POINTS 22 float
-5 0 0
-5 10 0
10 10 0
10 0 0
10 0 10
-5 0 5
10 0 5
10 10 5
-5 10 5
-5 5 0
10 5 0
10 5 5
-5 5 5
10 5 10
-8.88178419700125e-16 0 0
0 0 5
0 5 5
0 5 0
0 10 5
0 10 0
0 0 10
0 5 10

CELLS 25 125
4 0 9 17 14 
4 10 11 7 2 
4 3 6 11 10 
4 17 16 11 10 
4 9 12 16 17 
4 15 16 11 6 
4 5 12 16 15 
4 14 15 6 3 
4 0 5 15 14 
4 0 5 12 9 
4 9 12 8 1 
4 4 6 11 13 
4 14 17 10 3 
4 14 15 16 17 
4 8 12 16 18 
4 18 16 11 7 
4 1 8 18 19 
4 19 18 7 2 
4 1 9 17 19 
4 19 17 10 2 
4 17 16 18 19 
4 20 15 6 4 
4 16 21 13 11 
4 20 21 13 4 
4 20 15 16 21 

CELL_TYPES 25
9 
9 
9 
9 
9 
9 
9 
9 
9 
9 
9 
9 
9 
9 
9 
9 
9 
9 
9 
9 
9 
9 
9 
9 
9 
POINT_DATA 22
SCALARS GMDS_ID int 1
LOOKUP_TABLE default
0 1 2 3 7 8 9 10 11 12 13 14 15 16 18 19 20 21 22 23 24 25 
SCALARS geom_link_dim int 1
LOOKUP_TABLE default
1 0 0 1 0 1 1 0 0 1 1 1 1 0 2 1 1 1 1 1 1 1 
SCALARS geom_link_id int 1
LOOKUP_TABLE default
5 -1 -1 6 -1 7 10 -1 -1 19 14 20 13 -1 17 1 4 18 21 17 2 3 


CELL_DATA 25
SCALARS GMDS_ID int 1
LOOKUP_TABLE default
0 1 2 5 8 9 12 13 14 17 18 20 27 28 29 30 31 32 33 34 35 37 39 41 42 

SCALARS geom_link_dim int 1
LOOKUP_TABLE default
0 0 0 0 0 0 0 0 0 0 0 0 0 0 0 0 0 0 0 0 0 0 0 0 0 

SCALARS geom_link_id int 1
LOOKUP_TABLE default
0 0 0 0 0 0 0 0 0 0 0 0 0 0 0 0 0 0 0 0 0 0 0 0 0 

