# vtk DataFile Version 3.0
Generated by GMDS VTK Writer

ASCII
DATASET UNSTRUCTURED_GRID
POINTS 36 float
-5 0 0
-5 10 0
10 10 0
10 0 0
-5 0 10
-5 10 10
10 10 10
10 0 10
-5 0 5
10 0 5
10 10 5
-5 10 5
-8.88178419700125e-16 0 0
0 10 0
0 10 5
0 0 5
-8.88178419700125e-16 10 10
0 0 10
5 0 0
5 10 0
5 10 5
5 0 5
5 10 10
5 0 10
0 5 0
0 5 5
5 5 5
5 5 0
-5 5 0
-5 5 5
-5 5 10
0 5 10
10 5 5
10 5 0
5 5 10
10 5 10

CELLS 52 260
4 12 15 21 18 
4 12 18 27 24 
4 1 11 14 13 
4 27 26 20 19 
4 19 20 10 2 
4 13 14 20 19 
4 18 21 26 27 
4 0 8 15 12 
4 25 26 20 14 
4 5 11 14 16 
4 15 21 26 25 
4 24 25 14 13 
4 4 8 15 17 
4 12 15 25 24 
4 18 21 9 3 
4 14 16 22 20 
4 20 22 6 10 
4 15 17 23 21 
4 21 23 7 9 
4 24 27 19 13 
4 24 25 26 27 
4 0 8 29 28 
4 28 29 11 1 
4 8 15 25 29 
4 29 25 14 11 
4 0 12 24 28 
4 28 24 13 1 
4 28 29 25 24 
4 4 8 29 30 
4 30 29 11 5 
4 15 17 31 25 
4 25 31 16 14 
4 4 17 31 30 
4 30 31 16 5 
4 30 29 25 31 
4 9 21 26 32 
4 32 26 20 10 
4 3 9 32 33 
4 33 32 10 2 
4 3 18 27 33 
4 33 27 19 2 
4 27 26 32 33 
4 17 23 34 31 
4 31 34 22 16 
4 21 23 34 26 
4 26 34 22 20 
4 25 31 34 26 
4 7 23 34 35 
4 35 34 22 6 
4 7 9 32 35 
4 35 32 10 6 
4 26 34 35 32 

CELL_TYPES 52
9 
9 
9 
9 
9 
9 
9 
9 
9 
9 
9 
9 
9 
9 
9 
9 
9 
9 
9 
9 
9 
9 
9 
9 
9 
9 
9 
9 
9 
9 
9 
9 
9 
9 
9 
9 
9 
9 
9 
9 
9 
9 
9 
9 
9 
9 
9 
9 
9 
9 
9 
9 
POINT_DATA 36
SCALARS GMDS_ID int 1
LOOKUP_TABLE default
0 1 2 3 4 5 6 7 8 9 10 11 12 13 14 15 16 17 18 19 20 21 22 23 24 25 26 27 28 29 30 31 32 33 34 35 
SCALARS geom_link_dim_0 int 1
LOOKUP_TABLE default
0 0 0 0 0 0 0 0 0 0 0 0 0 0 0 0 0 0 0 0 0 0 0 0 0 0 0 0 0 0 0 0 0 0 0 0 
SCALARS geom_link_id_0 int 1
LOOKUP_TABLE default
0 0 0 0 0 0 0 0 0 0 0 0 0 0 0 0 0 0 0 0 0 0 0 0 0 0 0 0 0 0 0 0 0 0 0 0 


CELL_DATA 52
SCALARS GMDS_ID int 1
LOOKUP_TABLE default
0 1 2 3 7 10 16 17 18 20 21 23 24 25 27 29 30 33 34 36 37 38 39 40 41 42 43 44 45 46 47 48 49 50 51 52 53 54 55 56 57 58 59 60 61 62 63 64 65 66 67 68 

SCALARS geom_link_dim_0 int 1
LOOKUP_TABLE default
0 0 0 0 0 0 0 0 0 0 0 0 0 0 0 0 0 0 0 0 0 0 0 0 0 0 0 0 0 0 0 0 0 0 0 0 0 0 0 0 0 0 0 0 0 0 0 0 0 0 0 0 

SCALARS geom_link_id_0 int 1
LOOKUP_TABLE default
0 0 0 0 0 0 0 0 0 0 0 0 0 0 0 0 0 0 0 0 0 0 0 0 0 0 0 0 0 0 0 0 0 0 0 0 0 0 0 0 0 0 0 0 0 0 0 0 0 0 0 0 

