# vtk DataFile Version 3.0
Generated by GMDS VTK Writer

ASCII
DATASET UNSTRUCTURED_GRID
POINTS 24 float
-5 0 0
-5 10 0
10 10 0
10 0 0
-5 0 10
-5 10 10
10 10 10
10 0 10
5 10 0
5 0 0
5 0 10
5 10 10
10 10 5
10 0 5
5 0 5
5 10 5
-5 0 5
-5 10 5
8.88178419700125e-16 0 0
0 10 0
0 10 5
0 0 5
8.88178419700125e-16 10 10
0 0 10

CELLS 29 145
4 13 14 10 7 
4 0 16 21 18 
4 3 9 14 13 
4 21 20 15 14 
4 12 13 7 6 
4 2 3 13 12 
4 2 3 9 8 
4 16 17 20 21 
4 19 20 15 8 
4 6 7 10 11 
4 1 17 20 19 
4 18 19 8 9 
4 0 1 19 18 
4 8 9 14 15 
4 15 14 10 11 
4 2 8 15 12 
4 12 15 11 6 
4 12 13 14 15 
4 0 1 17 16 
4 16 17 5 4 
4 18 21 14 9 
4 18 19 20 21 
4 5 17 20 22 
4 22 20 15 11 
4 4 5 22 23 
4 23 22 11 10 
4 4 16 21 23 
4 23 21 14 10 
4 21 20 22 23 

CELL_TYPES 29
9 
9 
9 
9 
9 
9 
9 
9 
9 
9 
9 
9 
9 
9 
9 
9 
9 
9 
9 
9 
9 
9 
9 
9 
9 
9 
9 
9 
9 
POINT_DATA 24
SCALARS GMDS_ID int 1
LOOKUP_TABLE default
0 1 2 3 4 5 6 7 8 9 10 11 12 13 14 15 16 17 18 19 20 21 22 23 
SCALARS geom_link_dim int 1
LOOKUP_TABLE default
1 0 0 1 0 0 0 0 1 2 1 0 0 1 1 1 1 0 2 1 1 1 0 1 
SCALARS geom_link_id int 1
LOOKUP_TABLE default
5 -1 -1 6 -1 -1 -1 -1 16 17 8 -1 -1 10 9 22 7 -1 17 17 21 1 -1 2 


CELL_DATA 29
SCALARS GMDS_ID int 1
LOOKUP_TABLE default
0 1 2 3 4 5 6 8 9 10 12 13 14 15 16 17 18 19 22 23 27 28 29 30 31 32 33 34 35 

SCALARS geom_link_dim int 1
LOOKUP_TABLE default
0 0 0 0 0 0 0 0 0 0 0 0 0 0 0 0 0 0 0 0 0 0 0 0 0 0 0 0 0 

SCALARS geom_link_id int 1
LOOKUP_TABLE default
0 -1 0 -1 0 0 0 -1 -1 0 -1 -1 -1 0 0 0 0 0 0 0 -1 -1 -1 -1 -1 -1 -1 -1 -1 

