# vtk DataFile Version 3.0
Generated by GMDS VTK Writer

ASCII
DATASET UNSTRUCTURED_GRID
POINTS 30 float
-5 0 0
10 10 0
10 0 0
10 0 10
-5 0 5
10 0 5
10 10 5
-8.88178419700125e-16 0 0
0 10 0
0 10 5
0 0 5
-8.88178419700125e-16 10 10
0 0 10
5 0 0
5 10 0
5 10 5
5 0 5
5 10 10
5 0 10
0 5 0
0 5 5
5 5 5
5 5 0
-5 5 0
-5 5 5
0 5 10
10 5 5
10 5 0
5 5 10
10 5 10

CELLS 38 190
4 7 10 16 13 
4 7 13 22 19 
4 22 21 15 14 
4 14 15 6 1 
4 8 9 15 14 
4 13 16 21 22 
4 0 4 10 7 
4 20 21 15 9 
4 10 16 21 20 
4 19 20 9 8 
4 7 10 20 19 
4 13 16 5 2 
4 9 11 17 15 
4 10 12 18 16 
4 16 18 3 5 
4 19 22 14 8 
4 19 20 21 22 
4 0 4 24 23 
4 4 10 20 24 
4 0 7 19 23 
4 23 24 20 19 
4 10 12 25 20 
4 20 25 11 9 
4 5 16 21 26 
4 26 21 15 6 
4 2 5 26 27 
4 27 26 6 1 
4 2 13 22 27 
4 27 22 14 1 
4 22 21 26 27 
4 12 18 28 25 
4 25 28 17 11 
4 16 18 28 21 
4 21 28 17 15 
4 20 25 28 21 
4 3 18 28 29 
4 3 5 26 29 
4 21 28 29 26 

CELL_TYPES 38
9 
9 
9 
9 
9 
9 
9 
9 
9 
9 
9 
9 
9 
9 
9 
9 
9 
9 
9 
9 
9 
9 
9 
9 
9 
9 
9 
9 
9 
9 
9 
9 
9 
9 
9 
9 
9 
9 
POINT_DATA 30
SCALARS GMDS_ID int 1
LOOKUP_TABLE default
0 2 3 7 8 9 10 12 13 14 15 16 17 18 19 20 21 22 23 24 25 26 27 28 29 31 32 33 34 35 
SCALARS geom_link_dim_0 int 1
LOOKUP_TABLE default
0 0 0 0 0 0 0 0 0 0 0 0 0 0 0 0 0 0 0 0 0 0 0 0 0 0 0 0 0 0 
SCALARS geom_link_id_0 int 1
LOOKUP_TABLE default
0 0 0 0 0 0 0 0 0 0 0 0 0 0 0 0 0 0 0 0 0 0 0 0 0 0 0 0 0 0 


CELL_DATA 38
SCALARS GMDS_ID int 1
LOOKUP_TABLE default
0 1 3 7 10 16 17 18 21 23 25 27 29 33 34 36 37 38 40 42 44 47 48 52 53 54 55 56 57 58 59 60 61 62 63 64 66 68 

SCALARS geom_link_dim_0 int 1
LOOKUP_TABLE default
0 0 0 0 0 0 0 0 0 0 0 0 0 0 0 0 0 0 0 0 0 0 0 0 0 0 0 0 0 0 0 0 0 0 0 0 0 0 

SCALARS geom_link_id_0 int 1
LOOKUP_TABLE default
0 0 0 0 0 0 0 0 0 0 0 0 0 0 0 0 0 0 0 0 0 0 0 0 0 0 0 0 0 0 0 0 0 0 0 0 0 0 

