# vtk DataFile Version 3.0
Generated by GMDS VTK Writer

ASCII
DATASET UNSTRUCTURED_GRID
POINTS 36 float
-5 0 0
-5 10 0
10 10 0
10 0 0
-5 0 10
-5 10 10
10 10 10
10 0 10
-5 0 5
10 0 5
10 10 5
-5 10 5
-5 5 0
10 5 0
10 5 5
-5 5 5
10 5 10
-5 5 10
-8.88178419700125e-16 0 0
0 0 5
-8.88178419700125e-16 5 5
0 5 0
0 10 5
0 10 0
0 0 10
0 5 10
-8.88178419700125e-16 10 10
5 0 0
5 0 5
5 5 5
5 5 0
5 10 5
5 10 0
5 0 10
5 5 10
5 10 10

CELLS 52 260
4 0 12 21 18 
4 13 14 10 2 
4 3 9 14 13 
4 22 23 32 31 
4 29 31 10 14 
4 20 22 31 29 
4 27 28 29 30 
4 12 15 20 21 
4 27 30 13 3 
4 18 21 30 27 
4 8 15 20 19 
4 0 8 19 18 
4 29 30 13 14 
4 20 21 30 29 
4 0 8 15 12 
4 12 15 11 1 
4 28 29 14 9 
4 7 9 14 16 
4 16 14 10 6 
4 19 20 29 28 
4 27 28 9 3 
4 4 8 15 17 
4 17 15 11 5 
4 18 19 28 27 
4 18 19 20 21 
4 11 15 20 22 
4 1 11 22 23 
4 1 12 21 23 
4 21 20 22 23 
4 4 8 19 24 
4 15 17 25 20 
4 4 17 25 24 
4 24 19 20 25 
4 5 11 22 26 
4 5 17 25 26 
4 25 20 22 26 
4 31 32 2 10 
4 21 23 32 30 
4 30 32 2 13 
4 30 29 31 32 
4 19 24 33 28 
4 28 33 7 9 
4 20 25 34 29 
4 29 34 16 14 
4 24 25 34 33 
4 33 34 16 7 
4 33 28 29 34 
4 22 26 35 31 
4 31 35 6 10 
4 25 26 35 34 
4 34 35 6 16 
4 34 29 31 35 

CELL_TYPES 52
9 
9 
9 
9 
9 
9 
9 
9 
9 
9 
9 
9 
9 
9 
9 
9 
9 
9 
9 
9 
9 
9 
9 
9 
9 
9 
9 
9 
9 
9 
9 
9 
9 
9 
9 
9 
9 
9 
9 
9 
9 
9 
9 
9 
9 
9 
9 
9 
9 
9 
9 
9 
POINT_DATA 36
SCALARS GMDS_ID int 1
LOOKUP_TABLE default
0 1 2 3 4 5 6 7 8 9 10 11 12 13 14 15 16 17 18 19 20 21 22 23 24 25 26 27 28 29 30 31 32 33 34 35 
SCALARS geom_link_dim_0 int 1
LOOKUP_TABLE default
0 0 0 0 0 0 0 0 0 0 0 0 0 0 0 0 0 0 0 0 0 0 0 0 0 0 0 0 0 0 0 0 0 0 0 0 
SCALARS geom_link_id_0 int 1
LOOKUP_TABLE default
0 0 0 0 0 0 0 0 0 0 0 0 0 0 0 0 0 0 0 0 0 0 0 0 0 0 0 0 0 0 0 0 0 0 0 0 


CELL_DATA 52
SCALARS GMDS_ID int 1
LOOKUP_TABLE default
0 1 2 3 4 6 7 8 10 11 12 14 15 16 17 18 19 20 21 22 23 24 25 26 28 29 31 33 35 36 38 40 42 43 45 47 48 49 50 51 52 53 54 55 56 57 58 59 60 61 62 63 

SCALARS geom_link_dim_0 int 1
LOOKUP_TABLE default
0 0 0 0 0 0 0 0 0 0 0 0 0 0 0 0 0 0 0 0 0 0 0 0 0 0 0 0 0 0 0 0 0 0 0 0 0 0 0 0 0 0 0 0 0 0 0 0 0 0 0 0 

SCALARS geom_link_id_0 int 1
LOOKUP_TABLE default
0 0 0 0 0 0 0 0 0 0 0 0 0 0 0 0 0 0 0 0 0 0 0 0 0 0 0 0 0 0 0 0 0 0 0 0 0 0 0 0 0 0 0 0 0 0 0 0 0 0 0 0 

