# vtk DataFile Version 3.0
Generated by GMDS VTK Writer

ASCII
DATASET UNSTRUCTURED_GRID
POINTS 30 float
-5 0 0
-5 10 0
10 5 5
10 0 0
-5 10 10
10 0 5
0 5 0
-5 5 0
-5 5 10
8.88178419700125e-16 0 0
10 5 0
5 0 0
5 0 10
5 5 10
5 5 0
5 10 10
5 10 0
5 5 5
5 0 5
-5 5 5
-5 0 5
5 10 5
-5 10 5
0 5 5
0 0 5
0 5 10
0 0 10
0 10 0
0 10 5
8.88178419700125e-16 10 10

CELLS 38 190
4 6 23 17 14 
4 26 25 13 12 
4 25 23 17 13 
4 5 2 17 18 
4 0 7 6 9 
4 8 19 23 25 
4 9 6 14 11 
4 3 11 18 5 
4 18 17 13 12 
4 11 14 17 18 
4 9 6 23 24 
4 9 24 18 11 
4 3 10 14 11 
4 0 20 24 9 
4 10 14 17 2 
4 7 19 23 6 
4 23 24 18 17 
4 3 10 2 5 
4 19 20 24 23 
4 0 7 19 20 
4 14 16 21 17 
4 17 21 15 13 
4 1 7 19 22 
4 22 19 8 4 
4 26 24 18 12 
4 24 23 25 26 
4 1 7 6 27 
4 27 6 14 16 
4 19 22 28 23 
4 23 28 21 17 
4 1 22 28 27 
4 27 28 21 16 
4 27 6 23 28 
4 4 8 25 29 
4 29 25 13 15 
4 4 22 28 29 
4 29 28 21 15 
4 28 23 25 29 

CELL_TYPES 38
9 
9 
9 
9 
9 
9 
9 
9 
9 
9 
9 
9 
9 
9 
9 
9 
9 
9 
9 
9 
9 
9 
9 
9 
9 
9 
9 
9 
9 
9 
9 
9 
9 
9 
9 
9 
9 
9 
POINT_DATA 30
SCALARS GMDS_ID int 1
LOOKUP_TABLE default
0 1 2 3 5 6 7 8 9 10 11 12 13 14 15 16 17 18 19 20 21 22 23 24 25 26 27 28 29 30 
SCALARS geom_link_dim int 1
LOOKUP_TABLE default
1 0 1 1 0 1 1 1 0 2 1 2 1 1 1 0 1 1 1 1 1 1 0 1 1 1 1 1 1 0 
SCALARS geom_link_id int 1
LOOKUP_TABLE default
5 -1 20 6 -1 10 18 19 -1 17 14 17 8 11 15 -1 16 12 9 13 7 22 -1 4 1 3 2 17 21 -1 


CELL_DATA 38
SCALARS GMDS_ID int 1
LOOKUP_TABLE default
1 5 7 8 9 10 11 12 13 14 15 16 17 19 20 22 23 24 26 27 32 33 34 35 39 40 41 42 43 44 45 46 47 48 49 50 51 52 

SCALARS geom_link_dim int 1
LOOKUP_TABLE default
0 0 0 0 0 0 0 0 0 0 0 0 0 0 0 0 0 0 0 0 0 0 0 0 0 0 0 0 0 0 0 0 0 0 0 0 0 0 

SCALARS geom_link_id int 1
LOOKUP_TABLE default
0 0 0 0 0 0 0 0 0 0 0 0 0 0 0 0 0 0 0 0 0 0 0 0 0 0 0 0 0 0 0 0 0 0 0 0 0 0 

