# vtk DataFile Version 3.0
Generated by GMDS VTK Writer

ASCII
DATASET UNSTRUCTURED_GRID
POINTS 34 float
-5 0 0
-5 10 0
10 0 0
-5 0 10
-5 10 10
10 10 10
0 10 0
8.88178419700125e-16 0 0
0 0 10
8.88178419700125e-16 10 10
10 5 0
10 5 10
0 5 10
0 5 0
-5 5 10
-5 5 0
5 5 0
5 5 10
5 10 10
5 10 0
5 0 0
5 0 10
10 10 5
10 5 5
5 5 5
5 10 5
-5 0 5
0 0 5
0 5 5
-5 5 5
0 10 5
-5 10 5
10 0 5
5 0 5

CELLS 46 230
4 24 25 18 17 
4 18 17 12 9 
4 16 19 25 24 
4 5 11 17 18 
4 23 24 17 11 
4 10 16 24 23 
4 22 23 11 5 
4 3 8 12 14 
4 14 12 9 4 
4 0 7 13 15 
4 15 13 6 1 
4 19 16 13 6 
4 21 17 12 8 
4 2 10 16 20 
4 20 16 13 7 
4 22 25 18 5 
4 22 23 24 25 
4 0 7 27 26 
4 26 27 8 3 
4 7 13 28 27 
4 27 28 12 8 
4 13 15 29 28 
4 28 29 14 12 
4 0 15 29 26 
4 26 29 14 3 
4 26 27 28 29 
4 6 13 28 30 
4 30 28 12 9 
4 1 6 30 31 
4 31 30 9 4 
4 1 15 29 31 
4 31 29 14 4 
4 29 28 30 31 
4 13 16 24 28 
4 28 24 17 12 
4 6 19 25 30 
4 30 25 18 9 
4 25 24 28 30 
4 2 10 23 32 
4 16 20 33 24 
4 24 33 21 17 
4 2 20 33 32 
4 32 23 24 33 
4 7 20 33 27 
4 27 33 21 8 
4 33 24 28 27 

CELL_TYPES 46
9 
9 
9 
9 
9 
9 
9 
9 
9 
9 
9 
9 
9 
9 
9 
9 
9 
9 
9 
9 
9 
9 
9 
9 
9 
9 
9 
9 
9 
9 
9 
9 
9 
9 
9 
9 
9 
9 
9 
9 
9 
9 
9 
9 
9 
9 
POINT_DATA 34
SCALARS GMDS_ID int 1
LOOKUP_TABLE default
0 1 3 4 5 6 8 9 10 11 12 13 14 15 16 17 18 19 20 21 22 23 24 25 26 27 28 29 30 31 32 33 34 35 
SCALARS geom_link_dim_0 int 1
LOOKUP_TABLE default
0 0 0 0 0 0 0 0 0 0 0 0 0 0 0 0 0 0 0 0 0 0 0 0 0 0 0 0 0 0 0 0 0 0 
SCALARS geom_link_id_0 int 1
LOOKUP_TABLE default
0 0 0 0 0 0 0 0 0 0 0 0 0 0 0 0 0 0 0 0 0 0 0 0 0 0 0 0 0 0 0 0 0 0 


CELL_DATA 46
SCALARS GMDS_ID int 1
LOOKUP_TABLE default
2 7 8 10 12 17 18 20 21 24 25 27 32 33 34 36 37 38 39 40 41 42 43 44 45 46 47 48 49 50 51 52 53 54 55 56 57 58 59 61 62 63 65 66 67 68 

SCALARS geom_link_dim_0 int 1
LOOKUP_TABLE default
0 0 0 0 0 0 0 0 0 0 0 0 0 0 0 0 0 0 0 0 0 0 0 0 0 0 0 0 0 0 0 0 0 0 0 0 0 0 0 0 0 0 0 0 0 0 

SCALARS geom_link_id_0 int 1
LOOKUP_TABLE default
0 0 0 0 0 0 0 0 0 0 0 0 0 0 0 0 0 0 0 0 0 0 0 0 0 0 0 0 0 0 0 0 0 0 0 0 0 0 0 0 0 0 0 0 0 0 

