# vtk DataFile Version 3.0
Generated by GMDS VTK Writer

ASCII
DATASET UNSTRUCTURED_GRID
POINTS 26 float
-5 0 0
-5 10 0
10 0 0
-5 5 5
-5 5 0
-5 0 5
10 0 5
-5 10 5
5 0 0
5 10 0
5 10 5
5 0 5
5 0 10
-4.44089209850063e-16 0 0
0 10 0
0 10 5
0 0 5
0 0 10
0 5 5
0 5 0
5 5 0
5 5 5
10 5 5
10 5 0
0 5 10
5 5 10

CELLS 30 150
4 0 5 16 13 
4 20 21 10 9 
4 8 11 21 20 
4 14 15 10 9 
4 3 18 15 7 
4 1 7 15 14 
4 4 3 18 19 
4 4 19 14 1 
4 8 11 6 2 
4 0 13 19 4 
4 5 16 18 3 
4 19 18 15 14 
4 4 3 7 1 
4 13 16 18 19 
4 0 5 3 4 
4 13 16 11 8 
4 17 16 11 12 
4 6 11 21 22 
4 2 6 22 23 
4 2 8 20 23 
4 20 21 22 23 
4 11 16 18 21 
4 21 18 15 10 
4 8 13 19 20 
4 20 19 14 9 
4 19 18 21 20 
4 16 17 24 18 
4 11 12 25 21 
4 12 17 24 25 
4 24 18 21 25 

CELL_TYPES 30
9 
9 
9 
9 
9 
9 
9 
9 
9 
9 
9 
9 
9 
9 
9 
9 
9 
9 
9 
9 
9 
9 
9 
9 
9 
9 
9 
9 
9 
9 
POINT_DATA 26
SCALARS GMDS_ID int 1
LOOKUP_TABLE default
0 1 3 6 7 8 9 11 12 13 14 15 17 18 19 20 21 23 24 25 26 27 28 29 31 32 
SCALARS geom_link_dim_0 int 1
LOOKUP_TABLE default
0 0 0 0 0 0 0 0 0 0 0 0 0 0 0 0 0 0 0 0 0 0 0 0 0 0 
SCALARS geom_link_id_0 int 1
LOOKUP_TABLE default
0 0 0 0 0 0 0 0 0 0 0 0 0 0 0 0 0 0 0 0 0 0 0 0 0 0 


CELL_DATA 30
SCALARS GMDS_ID int 1
LOOKUP_TABLE default
0 2 4 7 9 10 15 17 18 20 21 22 23 24 25 27 34 36 38 40 42 43 44 45 46 47 50 55 57 59 

SCALARS geom_link_dim_0 int 1
LOOKUP_TABLE default
0 0 0 0 0 0 0 0 0 0 0 0 0 0 0 0 0 0 0 0 0 0 0 0 0 0 0 0 0 0 

SCALARS geom_link_id_0 int 1
LOOKUP_TABLE default
0 0 0 0 0 0 0 0 0 0 0 0 0 0 0 0 0 0 0 0 0 0 0 0 0 0 0 0 0 0 

