# vtk DataFile Version 3.0
Generated by GMDS VTK Writer

ASCII
DATASET UNSTRUCTURED_GRID
POINTS 22 float
-5 0 0
-5 10 0
10 10 0
10 0 0
-5 0 10
-5 10 10
0 10 0
-4.44089209850063e-16 0 0
-5 0 5
10 0 5
10 10 5
-5 10 5
5 0 0
5 10 0
5 10 5
5 0 5
5 10 10
5 0 10
0 10 5
0 0 5
-4.44089209850063e-16 10 10
0 0 10

CELLS 25 125
4 13 14 10 2 
4 12 13 2 3 
4 2 3 9 10 
4 0 1 6 7 
4 0 1 11 8 
4 8 11 5 4 
4 15 14 10 9 
4 12 15 9 3 
4 12 13 14 15 
4 6 18 14 13 
4 1 11 18 6 
4 7 6 13 12 
4 15 14 16 17 
4 8 11 18 19 
4 19 18 14 15 
4 0 8 19 7 
4 7 19 15 12 
4 7 6 18 19 
4 5 11 18 20 
4 20 18 14 16 
4 4 5 20 21 
4 21 20 16 17 
4 4 8 19 21 
4 21 19 15 17 
4 19 18 20 21 

CELL_TYPES 25
9 
9 
9 
9 
9 
9 
9 
9 
9 
9 
9 
9 
9 
9 
9 
9 
9 
9 
9 
9 
9 
9 
9 
9 
9 
POINT_DATA 22
SCALARS GMDS_ID int 1
LOOKUP_TABLE default
0 1 2 3 4 5 6 7 8 9 10 11 12 13 14 15 16 17 18 19 20 21 
SCALARS geom_link_dim int 1
LOOKUP_TABLE default
1 0 0 1 0 0 1 2 1 1 0 0 2 1 1 1 0 1 1 1 0 1 
SCALARS geom_link_id int 1
LOOKUP_TABLE default
5 -1 -1 6 -1 -1 17 17 7 10 -1 -1 17 16 22 9 -1 8 21 1 -1 2 


CELL_DATA 25
SCALARS GMDS_ID int 1
LOOKUP_TABLE default
0 2 4 5 6 7 9 11 12 14 16 18 19 20 21 22 23 24 25 26 27 28 29 30 31 

SCALARS geom_link_dim int 1
LOOKUP_TABLE default
0 0 0 0 0 0 0 0 0 0 0 0 0 0 0 0 0 0 0 0 0 0 0 0 0 

SCALARS geom_link_id int 1
LOOKUP_TABLE default
0 0 0 -1 0 0 0 0 0 -1 -1 -1 0 -1 -1 -1 -1 -1 -1 -1 -1 -1 -1 -1 -1 

