# vtk DataFile Version 3.0
Generated by GMDS VTK Writer

ASCII
DATASET UNSTRUCTURED_GRID
POINTS 35 float
-5 0 0
-5 10 0
10 0 0
-5 0 10
-5 10 10
10 10 10
10 0 10
0 10 0
8.88178419700125e-16 0 0
0 0 10
8.88178419700125e-16 10 10
10 5 0
10 5 10
0 5 10
0 5 0
-5 5 10
-5 5 0
5 5 0
5 5 10
5 10 10
5 10 0
5 0 0
5 0 10
10 10 5
10 5 5
5 5 5
5 10 5
-5 0 5
0 0 5
0 5 5
-5 5 5
0 10 5
-5 10 5
10 0 5
5 0 5

CELLS 49 245
4 25 26 19 18 
4 19 18 13 10 
4 17 20 26 25 
4 5 12 18 19 
4 24 25 18 12 
4 11 17 25 24 
4 23 24 12 5 
4 3 9 13 15 
4 15 13 10 4 
4 0 8 14 16 
4 16 14 7 1 
4 20 17 14 7 
4 6 12 18 22 
4 22 18 13 9 
4 2 11 17 21 
4 21 17 14 8 
4 23 26 19 5 
4 23 24 25 26 
4 0 8 28 27 
4 27 28 9 3 
4 8 14 29 28 
4 28 29 13 9 
4 14 16 30 29 
4 29 30 15 13 
4 0 16 30 27 
4 27 30 15 3 
4 27 28 29 30 
4 7 14 29 31 
4 31 29 13 10 
4 1 7 31 32 
4 32 31 10 4 
4 1 16 30 32 
4 32 30 15 4 
4 30 29 31 32 
4 14 17 25 29 
4 29 25 18 13 
4 7 20 26 31 
4 31 26 19 10 
4 26 25 29 31 
4 2 11 24 33 
4 33 24 12 6 
4 17 21 34 25 
4 25 34 22 18 
4 2 21 34 33 
4 33 34 22 6 
4 33 24 25 34 
4 8 21 34 28 
4 28 34 22 9 
4 34 25 29 28 

CELL_TYPES 49
9 
9 
9 
9 
9 
9 
9 
9 
9 
9 
9 
9 
9 
9 
9 
9 
9 
9 
9 
9 
9 
9 
9 
9 
9 
9 
9 
9 
9 
9 
9 
9 
9 
9 
9 
9 
9 
9 
9 
9 
9 
9 
9 
9 
9 
9 
9 
9 
9 
POINT_DATA 35
SCALARS GMDS_ID int 1
LOOKUP_TABLE default
0 1 3 4 5 6 7 8 9 10 11 12 13 14 15 16 17 18 19 20 21 22 23 24 25 26 27 28 29 30 31 32 33 34 35 
SCALARS geom_link_dim_0 int 1
LOOKUP_TABLE default
0 0 0 0 0 0 0 0 0 0 0 0 0 0 0 0 0 0 0 0 0 0 0 0 0 0 0 0 0 0 0 0 0 0 0 
SCALARS geom_link_id_0 int 1
LOOKUP_TABLE default
0 0 0 0 0 0 0 0 0 0 0 0 0 0 0 0 0 0 0 0 0 0 0 0 0 0 0 0 0 0 0 0 0 0 0 


CELL_DATA 49
SCALARS GMDS_ID int 1
LOOKUP_TABLE default
2 7 8 10 12 17 18 20 21 24 25 27 31 32 33 34 36 37 38 39 40 41 42 43 44 45 46 47 48 49 50 51 52 53 54 55 56 57 58 59 60 61 62 63 64 65 66 67 68 

SCALARS geom_link_dim_0 int 1
LOOKUP_TABLE default
0 0 0 0 0 0 0 0 0 0 0 0 0 0 0 0 0 0 0 0 0 0 0 0 0 0 0 0 0 0 0 0 0 0 0 0 0 0 0 0 0 0 0 0 0 0 0 0 0 

SCALARS geom_link_id_0 int 1
LOOKUP_TABLE default
0 0 0 0 0 0 0 0 0 0 0 0 0 0 0 0 0 0 0 0 0 0 0 0 0 0 0 0 0 0 0 0 0 0 0 0 0 0 0 0 0 0 0 0 0 0 0 0 0 

