# vtk DataFile Version 3.0
Generated by GMDS VTK Writer

ASCII
DATASET UNSTRUCTURED_GRID
POINTS 30 float
-5 0 0
-5 10 0
10 10 0
10 0 0
5 5 5
5 5 0
0 10 0
-4.44089209850063e-16 0 0
-5 0 5
10 0 5
10 10 5
-5 10 5
5 0 0
5 10 0
5 10 5
5 0 5
5 10 10
5 0 10
0 10 5
0 0 5
-4.44089209850063e-16 10 10
0 0 10
10 5 5
10 5 0
-5 5 0
-5 5 5
0 5 5
0 5 0
0 5 10
5 5 10

CELLS 38 190
4 13 14 10 2 
4 22 4 14 10 
4 12 15 9 3 
4 6 18 14 13 
4 1 11 18 6 
4 0 8 19 7 
4 7 19 15 12 
4 9 15 4 22 
4 20 18 14 16 
4 5 4 14 13 
4 12 15 4 5 
4 21 19 15 17 
4 3 9 22 23 
4 23 22 10 2 
4 3 12 5 23 
4 23 5 13 2 
4 5 4 22 23 
4 0 8 25 24 
4 24 25 11 1 
4 8 19 26 25 
4 25 26 18 11 
4 7 19 26 27 
4 27 26 18 6 
4 0 7 27 24 
4 24 27 6 1 
4 24 25 26 27 
4 15 19 26 4 
4 4 26 18 14 
4 7 12 5 27 
4 27 5 13 6 
4 27 26 4 5 
4 19 21 28 26 
4 26 28 20 18 
4 15 17 29 4 
4 4 29 16 14 
4 17 21 28 29 
4 29 28 20 16 
4 28 26 4 29 

CELL_TYPES 38
9 
9 
9 
9 
9 
9 
9 
9 
9 
9 
9 
9 
9 
9 
9 
9 
9 
9 
9 
9 
9 
9 
9 
9 
9 
9 
9 
9 
9 
9 
9 
9 
9 
9 
9 
9 
9 
9 
POINT_DATA 30
SCALARS GMDS_ID int 1
LOOKUP_TABLE default
0 1 2 3 4 5 6 7 8 9 10 11 12 13 14 15 16 17 18 19 20 21 22 23 24 25 26 27 28 29 
SCALARS geom_link_dim int 1
LOOKUP_TABLE default
1 0 0 1 1 1 1 2 1 1 0 0 2 1 1 1 0 1 1 1 0 1 1 1 1 1 1 1 1 1 
SCALARS geom_link_id int 1
LOOKUP_TABLE default
5 -1 -1 6 12 15 17 17 7 10 -1 -1 17 16 22 9 -1 8 21 1 -1 2 20 14 19 13 4 18 3 11 


CELL_DATA 38
SCALARS GMDS_ID int 1
LOOKUP_TABLE default
0 5 7 9 10 15 16 18 19 20 22 23 25 26 27 28 29 30 31 32 33 34 35 36 37 38 39 40 41 42 43 44 45 46 47 48 49 50 

SCALARS geom_link_dim int 1
LOOKUP_TABLE default
0 0 0 0 0 0 0 0 0 0 0 0 0 0 0 0 0 0 0 0 0 0 0 0 0 0 0 0 0 0 0 0 0 0 0 0 0 0 

SCALARS geom_link_id int 1
LOOKUP_TABLE default
0 -1 0 0 0 0 0 -1 0 -1 -1 0 -1 -1 -1 -1 -1 -1 -1 -1 -1 -1 -1 -1 -1 -1 -1 -1 -1 -1 -1 -1 -1 -1 -1 -1 -1 -1 

