# vtk DataFile Version 3.0
Generated by GMDS VTK Writer

ASCII
DATASET UNSTRUCTURED_GRID
POINTS 22 float
0 10 0
10 10 0
10 0 0
0 10 10
10 10 10
10 0 10
8 0 0
8 10 0
8 10 10
8 0 10
0 1 0
0 1 10
8 1 10
8 1 0
10 1 10
10 1 0
1 1 0
1 1 10
1 10 10
1 10 0
1 0 0
1 0 10

CELLS 5 45
8 16 17 18 19 13 12 8 7 
8 10 11 3 0 16 17 18 19 
8 6 9 5 2 13 12 14 15 
8 13 12 14 15 7 8 4 1 
8 20 21 17 16 6 9 12 13 

CELL_TYPES 5
12 
12 
12 
12 
12 
POINT_DATA 22
SCALARS GMDS_ID int 1
LOOKUP_TABLE default
1 2 3 5 6 7 8 9 10 11 12 13 14 15 16 17 18 19 20 21 22 23 
SCALARS geom_link_dim_0 int 1
LOOKUP_TABLE default
0 0 0 0 0 0 0 0 0 0 0 0 0 0 0 0 0 0 0 0 0 0 
SCALARS geom_link_id_0 int 1
LOOKUP_TABLE default
0 0 0 0 0 0 0 0 0 0 0 0 0 0 0 0 0 0 0 0 0 0 


CELL_DATA 5
SCALARS GMDS_ID int 1
LOOKUP_TABLE default
1 2 4 5 7 

SCALARS geom_link_dim_0 int 1
LOOKUP_TABLE default
0 0 0 0 0 

SCALARS geom_link_id_0 int 1
LOOKUP_TABLE default
0 0 0 0 0 

