# vtk DataFile Version 3.0
Generated by GMDS VTK Writer

ASCII
DATASET UNSTRUCTURED_GRID
POINTS 28 float
1 8 10
0 10 0
10 0 0
1 8 0
0 10 10
10 0 10
8 0 0
8 10 0
8 10 10
8 0 10
0 1 0
0 1 10
8 1 10
8 1 0
10 1 10
10 1 0
1 1 0
1 1 10
1 10 10
1 10 0
1 0 0
1 0 10
8 8 10
8 8 0
0 8 0
0 8 10
10 8 10
10 8 0

CELLS 7 63
8 3 0 22 23 19 18 8 7 
8 10 11 17 16 24 25 0 3 
8 6 9 5 2 13 12 14 15 
8 16 17 12 13 3 0 22 23 
8 20 21 17 16 6 9 12 13 
8 24 25 0 3 1 4 18 19 
8 13 12 14 15 23 22 26 27 

CELL_TYPES 7
12 
12 
12 
12 
12 
12 
12 
POINT_DATA 28
SCALARS GMDS_ID int 1
LOOKUP_TABLE default
0 1 3 4 5 7 8 9 10 11 12 13 14 15 16 17 18 19 20 21 22 23 24 25 26 27 28 29 
SCALARS geom_link_dim_0 int 1
LOOKUP_TABLE default
0 0 0 0 0 0 0 0 0 0 0 0 0 0 0 0 0 0 0 0 0 0 0 0 0 0 0 0 
SCALARS geom_link_id_0 int 1
LOOKUP_TABLE default
0 0 0 0 0 0 0 0 0 0 0 0 0 0 0 0 0 0 0 0 0 0 0 0 0 0 0 0 


CELL_DATA 7
SCALARS GMDS_ID int 1
LOOKUP_TABLE default
0 3 4 6 7 8 9 

SCALARS geom_link_dim_0 int 1
LOOKUP_TABLE default
0 0 0 0 0 0 0 

SCALARS geom_link_id_0 int 1
LOOKUP_TABLE default
0 0 0 0 0 0 0 

