# vtk DataFile Version 3.0
Generated by GMDS VTK Writer

ASCII
DATASET UNSTRUCTURED_GRID
POINTS 32 float
0 0 0
0 10 0
10 10 0
10 0 0
0 0 10
0 10 10
10 10 10
10 0 10
0 1 0
0 1 10
10 1 10
10 1 0
1 0 0
1 0 10
1 1 10
1 1 0
1 10 10
1 10 0
10 8 10
10 8 0
1 8 0
1 8 10
0 8 0
0 8 10
8 0 0
8 0 10
8 1 10
8 1 0
8 8 10
8 8 0
8 10 0
8 10 10

CELLS 9 81
8 12 13 14 15 0 4 9 8 
8 24 25 26 27 12 13 14 15 
8 3 7 10 11 24 25 26 27 
8 14 15 8 9 21 20 22 23 
8 21 20 22 23 16 17 1 5 
8 18 19 2 6 28 29 30 31 
8 28 29 30 31 21 20 17 16 
8 10 11 19 18 26 27 29 28 
8 26 27 29 28 14 15 20 21 

CELL_TYPES 9
12 
12 
12 
12 
12 
12 
12 
12 
12 
POINT_DATA 32
SCALARS GMDS_ID int 1
LOOKUP_TABLE default
0 1 2 3 4 5 6 7 8 9 10 11 12 13 14 15 16 17 18 19 20 21 22 23 24 25 26 27 28 29 30 31 
SCALARS geom_link_dim_0 int 1
LOOKUP_TABLE default
0 0 0 0 0 0 0 0 0 0 0 0 0 0 0 0 0 0 0 0 0 0 0 0 0 0 0 0 0 0 0 0 
SCALARS geom_link_id_0 int 1
LOOKUP_TABLE default
0 0 0 0 0 0 0 0 0 0 0 0 0 0 0 0 0 0 0 0 0 0 0 0 0 0 0 0 0 0 0 0 


CELL_DATA 9
SCALARS GMDS_ID int 1
LOOKUP_TABLE default
3 4 5 6 7 8 9 10 11 

SCALARS geom_link_dim_0 int 1
LOOKUP_TABLE default
0 0 0 0 0 0 0 0 0 

SCALARS geom_link_id_0 int 1
LOOKUP_TABLE default
0 0 0 0 0 0 0 0 0 

