# vtk DataFile Version 3.0
Generated by GMDS VTK Writer

ASCII
DATASET UNSTRUCTURED_GRID
POINTS 32 float
0 0 0
0 10 0
10 10 0
10 0 0
0 0 10
0 10 10
10 10 10
10 0 10
1 10 0
1 0 0
1 0 10
1 10 10
8 10 0
8 0 0
8 0 10
8 10 10
8 1 0
8 1 10
1 1 10
1 1 0
10 1 0
10 1 10
0 1 10
0 1 0
8 8 0
8 8 10
1 8 10
1 8 0
10 8 0
10 8 10
0 8 10
0 8 0

CELLS 9 81
8 24 25 26 27 12 15 11 8 
8 13 14 10 9 16 17 18 19 
8 16 17 18 19 24 25 26 27 
8 20 21 17 16 28 29 25 24 
8 3 7 14 13 20 21 17 16 
8 9 10 4 0 19 18 22 23 
8 28 29 25 24 2 6 15 12 
8 19 18 22 23 27 26 30 31 
8 27 26 30 31 8 11 5 1 

CELL_TYPES 9
12 
12 
12 
12 
12 
12 
12 
12 
12 
POINT_DATA 32
SCALARS GMDS_ID int 1
LOOKUP_TABLE default
0 1 2 3 4 5 6 7 8 9 10 11 12 13 14 15 16 17 18 19 20 21 22 23 24 25 26 27 28 29 30 31 
SCALARS geom_link_dim int 1
LOOKUP_TABLE default
0 1 0 1 0 1 0 1 2 1 1 2 1 2 2 1 3 3 1 1 2 2 1 1 1 1 3 3 1 1 2 2 
SCALARS geom_link_id int 1
LOOKUP_TABLE default
-1 14 -1 16 -1 13 -1 15 4 4 3 3 10 11 10 9 2 4 5 6 12 7 1 2 8 7 4 2 12 11 6 9 


CELL_DATA 9
SCALARS GMDS_ID int 1
LOOKUP_TABLE default
0 1 2 3 5 7 9 10 11 

SCALARS is_in int 1
LOOKUP_TABLE default
1 1 1 1 1 0 0 1 1 

SCALARS geom_link_dim int 1
LOOKUP_TABLE default
0 0 0 0 0 0 0 0 0 

SCALARS geom_link_id int 1
LOOKUP_TABLE default
-1 0 -1 -1 0 0 -1 -1 -1 

