# vtk DataFile Version 3.0
Generated by GMDS VTK Writer

ASCII
DATASET UNSTRUCTURED_GRID
POINTS 28 float
8 1 10
0 10 0
10 0 0
8 1 0
0 10 10
10 0 10
0 8 0
10 8 0
10 8 10
0 8 10
0 1 0
10 1 0
10 1 10
0 1 10
1 1 0
1 1 10
1 0 10
1 0 0
1 8 0
1 8 10
1 10 0
1 10 10
8 0 10
8 0 0
8 8 0
8 8 10
8 10 0
8 10 10

CELLS 7 63
8 7 8 12 11 24 25 0 3 
8 3 0 22 23 14 15 16 17 
8 24 25 0 3 18 19 15 14 
8 11 12 5 2 3 0 22 23 
8 18 19 15 14 6 9 13 10 
8 20 21 19 18 1 4 9 6 
8 26 27 25 24 20 21 19 18 

CELL_TYPES 7
12 
12 
12 
12 
12 
12 
12 
POINT_DATA 28
SCALARS GMDS_ID int 1
LOOKUP_TABLE default
0 1 3 4 5 7 8 9 10 11 12 13 14 15 16 17 18 19 20 21 22 23 24 25 26 27 28 29 
SCALARS geom_link_dim int 1
LOOKUP_TABLE default
3 1 1 3 1 1 2 1 1 2 1 2 2 1 1 1 1 1 3 3 2 2 2 2 1 1 1 1 
SCALARS geom_link_id int 1
LOOKUP_TABLE default
4 14 16 2 13 15 9 12 11 6 2 12 7 1 6 5 3 4 2 4 4 3 10 11 8 7 10 9 


CELL_DATA 7
SCALARS GMDS_ID int 1
LOOKUP_TABLE default
0 1 3 4 6 8 10 

SCALARS is_in int 1
LOOKUP_TABLE default
1 1 1 1 1 1 1 

SCALARS geom_link_dim int 1
LOOKUP_TABLE default
4 4 4 4 4 4 4 

SCALARS geom_link_id int 1
LOOKUP_TABLE default
1 1 1 1 1 1 1 

