# vtk DataFile Version 3.0
Generated by GMDS VTK Writer

ASCII
DATASET UNSTRUCTURED_GRID
POINTS 22 float
0 10 0
10 10 0
10 0 0
0 10 10
10 10 10
10 0 10
0 8 0
10 8 0
10 8 10
0 8 10
0 1 0
10 1 0
10 1 10
0 1 10
1 1 0
1 1 10
1 0 10
1 0 0
1 8 0
1 8 10
1 10 0
1 10 10

CELLS 5 45
8 11 12 5 2 14 15 16 17 
8 7 8 12 11 18 19 15 14 
8 18 19 15 14 6 9 13 10 
8 1 4 8 7 20 21 19 18 
8 20 21 19 18 0 3 9 6 

CELL_TYPES 5
12 
12 
12 
12 
12 
POINT_DATA 22
SCALARS GMDS_ID int 1
LOOKUP_TABLE default
1 2 3 5 6 7 8 9 10 11 12 13 14 15 16 17 18 19 20 21 22 23 
SCALARS geom_link_dim int 1
LOOKUP_TABLE default
1 0 1 1 0 1 2 1 1 2 1 2 2 1 1 1 1 1 3 3 2 2 
SCALARS geom_link_id int 1
LOOKUP_TABLE default
14 -1 16 13 -1 15 9 12 11 6 2 12 7 1 6 5 3 4 2 4 4 3 


CELL_DATA 5
SCALARS GMDS_ID int 1
LOOKUP_TABLE default
2 5 6 7 8 

SCALARS is_in int 1
LOOKUP_TABLE default
1 1 1 1 1 

SCALARS geom_link_dim int 1
LOOKUP_TABLE default
0 0 0 0 0 

SCALARS geom_link_id int 1
LOOKUP_TABLE default
0 0 0 0 0 

