# vtk DataFile Version 3.0
Generated by GMDS VTK Writer

ASCII
DATASET UNSTRUCTURED_GRID
POINTS 30 float
8 1 10
0 10 0
10 10 0
10 0 0
8 1 0
0 10 10
10 10 10
10 0 10
0 8 0
10 8 0
10 8 10
0 8 10
0 1 0
10 1 0
10 1 10
0 1 10
1 1 0
1 1 10
1 0 10
1 0 0
1 8 0
1 8 10
1 10 0
1 10 10
8 0 10
8 0 0
8 8 0
8 8 10
8 10 0
8 10 10

CELLS 8 72
8 9 10 14 13 26 27 0 4 
8 4 0 24 25 16 17 18 19 
8 26 27 0 4 20 21 17 16 
8 13 14 7 3 4 0 24 25 
8 20 21 17 16 8 11 15 12 
8 22 23 21 20 1 5 11 8 
8 2 6 10 9 28 29 27 26 
8 28 29 27 26 22 23 21 20 

CELL_TYPES 8
12 
12 
12 
12 
12 
12 
12 
12 
POINT_DATA 30
SCALARS GMDS_ID int 1
LOOKUP_TABLE default
0 1 2 3 4 5 6 7 8 9 10 11 12 13 14 15 16 17 18 19 20 21 22 23 24 25 26 27 28 29 
SCALARS geom_link_dim int 1
LOOKUP_TABLE default
3 1 0 1 3 1 0 1 2 1 1 2 1 2 2 1 1 1 1 1 3 3 2 2 2 2 1 1 1 1 
SCALARS geom_link_id int 1
LOOKUP_TABLE default
4 14 -1 16 2 13 -1 15 9 12 11 6 2 12 7 1 6 5 3 4 2 4 4 3 10 11 8 7 10 9 


CELL_DATA 8
SCALARS GMDS_ID int 1
LOOKUP_TABLE default
0 1 3 4 6 8 9 10 

SCALARS is_in int 1
LOOKUP_TABLE default
1 1 1 1 1 1 0 1 

SCALARS geom_link_dim int 1
LOOKUP_TABLE default
0 0 0 0 0 0 0 0 

SCALARS geom_link_id int 1
LOOKUP_TABLE default
-1 -1 -1 -1 0 0 -1 -1 

