# vtk DataFile Version 3.0
Generated by GMDS VTK Writer

ASCII
DATASET UNSTRUCTURED_GRID
POINTS 30 float
0 10 0
10 10 0
10 0 0
0 10 10
10 10 10
10 0 10
1 10 0
1 0 0
1 0 10
1 10 10
8 10 0
8 0 0
8 0 10
8 10 10
8 1 0
8 1 10
1 1 10
1 1 0
10 1 0
10 1 10
0 1 10
0 1 0
8 8 0
8 8 10
1 8 10
1 8 0
10 8 0
10 8 10
0 8 10
0 8 0

CELLS 59 177
2 25 6
2 2 11
2 22 10
2 11 7
2 24 9
2 1 10
2 14 22
2 10 6
2 0 3
2 1 4
2 2 5
2 6 0
2 12 15
2 11 14
2 9 3
2 17 25
2 7 8
2 16 24
2 6 9
2 5 12
2 12 8
2 4 13
2 13 9
2 15 23
2 11 12
2 23 13
2 10 13
2 8 16
2 7 17
2 14 15
2 16 15
2 17 16
2 17 14
2 2 18
2 5 19
2 18 19
2 19 15
2 18 14
2 20 16
2 21 20
2 21 17
2 22 23
2 23 24
2 24 25
2 22 25
2 18 26
2 26 1
2 19 27
2 27 4
2 26 27
2 23 27
2 22 26
2 20 28
2 28 3
2 21 29
2 29 0
2 24 28
2 28 29
2 25 29

CELL_TYPES 59
3 
3 
3 
3 
3 
3 
3 
3 
3 
3 
3 
3 
3 
3 
3 
3 
3 
3 
3 
3 
3 
3 
3 
3 
3 
3 
3 
3 
3 
3 
3 
3 
3 
3 
3 
3 
3 
3 
3 
3 
3 
3 
3 
3 
3 
3 
3 
3 
3 
3 
3 
3 
3 
3 
3 
3 
3 
3 
3 
POINT_DATA 30
SCALARS GMDS_ID int 1
LOOKUP_TABLE default
1 2 3 5 6 7 8 9 10 11 12 13 14 15 16 17 18 19 20 21 22 23 24 25 26 27 28 29 30 31 
SCALARS geom_link_dim int 1
LOOKUP_TABLE default
1 0 1 1 0 1 2 1 1 2 1 2 2 1 3 3 1 1 2 2 1 1 1 1 3 3 1 1 2 2 
SCALARS geom_link_id int 1
LOOKUP_TABLE default
14 -1 16 13 -1 15 4 4 3 3 10 11 10 9 2 4 5 6 12 7 1 2 8 7 4 2 12 11 6 9 


CELL_DATA 59
SCALARS GMDS_ID int 1
LOOKUP_TABLE default
0 1 2 3 4 5 6 7 9 10 11 13 14 16 19 20 21 22 23 24 25 26 27 28 29 30 31 32 34 36 37 38 39 40 42 44 45 46 51 52 53 54 55 56 57 58 59 60 61 62 63 64 65 66 67 68 69 70 71 

SCALARS geom_link_dim int 1
LOOKUP_TABLE default
0 2 2 2 0 0 0 2 2 0 2 2 0 0 2 0 2 0 0 2 2 0 2 0 0 2 2 2 2 0 0 2 0 2 2 0 0 0 2 2 2 0 0 0 0 2 0 2 0 2 2 2 2 2 2 2 0 0 0 

SCALARS geom_link_id int 1
LOOKUP_TABLE default
0 11 15 11 0 0 0 4 5 0 8 4 0 0 3 0 21 0 0 10 10 0 3 0 0 16 13 18 17 0 0 1 0 12 7 0 0 0 19 22 20 0 0 0 0 12 0 7 0 14 24 23 6 6 9 9 0 0 0 

