# vtk DataFile Version 3.0
Generated by GMDS VTK Writer

ASCII
DATASET UNSTRUCTURED_GRID
POINTS 22 float
0 10 0
10 10 0
10 0 0
0 10 10
10 10 10
10 0 10
8 0 0
8 10 0
8 10 10
8 0 10
0 1 0
0 1 10
8 1 10
8 1 0
10 1 10
10 1 0
1 1 0
1 1 10
1 10 10
1 10 0
1 0 0
1 0 10

CELLS 41 123
2 18 8
2 11 3
2 10 16
2 3 18
2 10 0
2 16 13
2 0 3
2 1 4
2 2 5
2 6 2
2 7 1
2 8 4
2 9 5
2 17 12
2 7 8
2 11 17
2 6 9
2 9 12
2 12 8
2 6 13
2 13 7
2 10 11
2 13 12
2 5 14
2 14 4
2 2 15
2 15 1
2 14 12
2 15 14
2 15 13
2 0 19
2 19 7
2 16 17
2 18 17
2 19 18
2 19 16
2 20 6
2 21 9
2 20 21
2 21 17
2 20 16

CELL_TYPES 41
3 
3 
3 
3 
3 
3 
3 
3 
3 
3 
3 
3 
3 
3 
3 
3 
3 
3 
3 
3 
3 
3 
3 
3 
3 
3 
3 
3 
3 
3 
3 
3 
3 
3 
3 
3 
3 
3 
3 
3 
3 
POINT_DATA 22
SCALARS GMDS_ID int 1
LOOKUP_TABLE default
1 2 3 5 6 7 8 9 10 11 12 13 14 15 16 17 18 19 20 21 22 23 
SCALARS geom_link_dim_0 int 1
LOOKUP_TABLE default
0 0 0 0 0 0 0 0 0 0 0 0 0 0 0 0 0 0 0 0 0 0 
SCALARS geom_link_id_0 int 1
LOOKUP_TABLE default
0 0 0 0 0 0 0 0 0 0 0 0 0 0 0 0 0 0 0 0 0 0 


CELL_DATA 41
SCALARS GMDS_ID int 1
LOOKUP_TABLE default
0 1 2 4 5 6 9 10 11 13 15 17 19 20 21 22 23 24 25 26 27 28 30 32 33 34 35 36 37 38 39 40 41 42 43 44 46 48 49 50 51 

SCALARS geom_link_dim_0 int 1
LOOKUP_TABLE default
0 0 0 0 0 0 0 0 0 0 0 0 0 0 0 0 0 0 0 0 0 0 0 0 0 0 0 0 0 0 0 0 0 0 0 0 0 0 0 0 0 

SCALARS geom_link_id_0 int 1
LOOKUP_TABLE default
0 0 0 0 0 0 0 0 0 0 0 0 0 0 0 0 0 0 0 0 0 0 0 0 0 0 0 0 0 0 0 0 0 0 0 0 0 0 0 0 0 

