# vtk DataFile Version 3.0
Generated by GMDS VTK Writer

ASCII
DATASET UNSTRUCTURED_GRID
POINTS 30 float
1 8 10
0 10 0
10 10 0
10 0 0
1 8 0
0 10 10
10 10 10
10 0 10
8 0 0
8 10 0
8 10 10
8 0 10
0 1 0
0 1 10
8 1 10
8 1 0
10 1 10
10 1 0
1 1 0
1 1 10
1 10 10
1 10 0
1 0 0
1 0 10
8 8 10
8 8 0
0 8 0
0 8 10
10 8 10
10 8 0

CELLS 59 177
2 20 10
2 12 18
2 19 0
2 5 20
2 18 15
2 18 4
2 14 24
2 1 5
2 2 6
2 3 7
2 24 25
2 8 3
2 24 10
2 9 2
2 15 25
2 10 6
2 24 0
2 11 7
2 19 14
2 9 10
2 13 19
2 8 11
2 11 14
2 8 15
2 12 13
2 25 9
2 15 14
2 4 0
2 7 16
2 3 17
2 16 14
2 17 16
2 17 15
2 1 21
2 21 9
2 18 19
2 21 20
2 4 21
2 22 8
2 0 20
2 23 11
2 22 23
2 23 19
2 22 18
2 25 4
2 12 26
2 26 1
2 13 27
2 27 5
2 26 27
2 27 0
2 26 4
2 16 28
2 28 6
2 17 29
2 29 2
2 24 28
2 28 29
2 25 29

CELL_TYPES 59
3 
3 
3 
3 
3 
3 
3 
3 
3 
3 
3 
3 
3 
3 
3 
3 
3 
3 
3 
3 
3 
3 
3 
3 
3 
3 
3 
3 
3 
3 
3 
3 
3 
3 
3 
3 
3 
3 
3 
3 
3 
3 
3 
3 
3 
3 
3 
3 
3 
3 
3 
3 
3 
3 
3 
3 
3 
3 
3 
POINT_DATA 30
SCALARS GMDS_ID int 1
LOOKUP_TABLE default
0 1 2 3 4 5 6 7 8 9 10 11 12 13 14 15 16 17 18 19 20 21 22 23 24 25 26 27 28 29 
SCALARS geom_link_dim_0 int 1
LOOKUP_TABLE default
0 0 0 0 0 0 0 0 0 0 0 0 0 0 0 0 0 0 0 0 0 0 0 0 0 0 0 0 0 0 
SCALARS geom_link_id_0 int 1
LOOKUP_TABLE default
0 0 0 0 0 0 0 0 0 0 0 0 0 0 0 0 0 0 0 0 0 0 0 0 0 0 0 0 0 0 


CELL_DATA 59
SCALARS GMDS_ID int 1
LOOKUP_TABLE default
0 2 3 4 6 7 8 9 10 11 12 13 14 15 16 17 18 19 20 21 22 23 24 26 28 29 30 31 32 34 36 37 38 39 40 41 43 45 46 47 48 49 50 51 52 53 54 55 56 57 58 59 60 61 62 63 64 65 66 

SCALARS geom_link_dim_0 int 1
LOOKUP_TABLE default
0 0 0 0 0 0 0 0 0 0 0 0 0 0 0 0 0 0 0 0 0 0 0 0 0 0 0 0 0 0 0 0 0 0 0 0 0 0 0 0 0 0 0 0 0 0 0 0 0 0 0 0 0 0 0 0 0 0 0 

SCALARS geom_link_id_0 int 1
LOOKUP_TABLE default
0 0 0 0 0 0 0 0 0 0 0 0 0 0 0 0 0 0 0 0 0 0 0 0 0 0 0 0 0 0 0 0 0 0 0 0 0 0 0 0 0 0 0 0 0 0 0 0 0 0 0 0 0 0 0 0 0 0 0 

