# vtk DataFile Version 3.0
Generated by GMDS VTK Writer

ASCII
DATASET UNSTRUCTURED_GRID
POINTS 24 float
0 0 0
0 10 0
10 10 0
10 0 0
0 0 10
0 10 10
10 10 10
10 0 10
1 10 0
1 0 0
1 0 10
1 10 10
8 10 0
8 0 0
8 0 10
8 10 10
8 1 0
8 1 10
1 1 10
1 1 0
10 1 0
10 1 10
0 1 10
0 1 0

CELLS 46 138
2 3 13
2 13 9
2 2 12
2 12 8
2 0 4
2 1 5
2 2 6
2 3 7
2 17 15
2 8 1
2 14 17
2 9 0
2 13 16
2 10 4
2 16 12
2 11 5
2 9 10
2 8 11
2 7 14
2 14 10
2 6 15
2 15 11
2 13 14
2 12 15
2 10 18
2 18 11
2 9 19
2 19 8
2 16 17
2 18 17
2 19 18
2 19 16
2 3 20
2 20 2
2 7 21
2 21 6
2 20 21
2 21 17
2 20 16
2 4 22
2 22 5
2 0 23
2 23 1
2 22 18
2 23 22
2 23 19

CELL_TYPES 46
3 
3 
3 
3 
3 
3 
3 
3 
3 
3 
3 
3 
3 
3 
3 
3 
3 
3 
3 
3 
3 
3 
3 
3 
3 
3 
3 
3 
3 
3 
3 
3 
3 
3 
3 
3 
3 
3 
3 
3 
3 
3 
3 
3 
3 
3 
POINT_DATA 24
SCALARS GMDS_ID int 1
LOOKUP_TABLE default
0 1 2 3 4 5 6 7 8 9 10 11 12 13 14 15 16 17 18 19 20 21 22 23 
SCALARS geom_link_dim int 1
LOOKUP_TABLE default
0 1 0 1 0 1 0 1 2 1 1 2 1 2 2 1 3 3 1 1 2 2 1 1 
SCALARS geom_link_id int 1
LOOKUP_TABLE default
-1 14 -1 16 -1 13 -1 15 4 4 3 3 10 11 10 9 2 4 5 6 12 7 1 2 


CELL_DATA 46
SCALARS GMDS_ID int 1
LOOKUP_TABLE default
1 3 5 7 8 9 10 11 12 13 14 15 16 17 18 19 21 23 24 25 26 27 29 31 32 33 34 35 36 37 38 39 40 41 42 43 44 45 46 47 48 49 50 51 52 53 

SCALARS geom_link_dim int 1
LOOKUP_TABLE default
2 2 0 2 0 2 0 2 0 2 0 0 0 0 0 2 2 0 2 2 0 2 0 2 2 0 2 0 0 0 0 0 0 0 0 0 0 0 0 0 2 0 2 2 2 2 

SCALARS geom_link_id int 1
LOOKUP_TABLE default
11 11 0 4 0 5 0 8 -1 4 -1 0 -1 0 -1 3 21 0 10 10 0 3 0 13 18 -1 17 -1 -1 -1 -1 -1 -1 -1 -1 -1 -1 -1 -1 -1 6 -1 9 19 22 20 

