# vtk DataFile Version 3.0
Generated by GMDS VTK Writer

ASCII
DATASET UNSTRUCTURED_GRID
POINTS 16 float
0 0 0
0 10 0
10 10 0
10 0 0
0 0 10
0 10 10
10 10 10
10 0 10
0 8 0
10 8 0
10 8 10
0 8 10
0 1 0
10 1 0
10 1 10
0 1 10

CELLS 28 84
2 9 13
2 1 2
2 13 3
2 3 0
2 8 12
2 5 6
2 12 0
2 7 4
2 0 4
2 1 5
2 2 6
2 3 7
2 1 8
2 2 9
2 6 10
2 5 11
2 8 9
2 9 10
2 11 10
2 8 11
2 10 14
2 14 7
2 11 15
2 15 4
2 12 13
2 13 14
2 14 15
2 12 15

CELL_TYPES 28
3 
3 
3 
3 
3 
3 
3 
3 
3 
3 
3 
3 
3 
3 
3 
3 
3 
3 
3 
3 
3 
3 
3 
3 
3 
3 
3 
3 
POINT_DATA 16
SCALARS GMDS_ID int 1
LOOKUP_TABLE default
0 1 2 3 4 5 6 7 8 9 10 11 12 13 14 15 
SCALARS geom_link_dim int 1
LOOKUP_TABLE default
0 1 0 1 0 1 0 1 2 1 1 2 1 2 2 1 
SCALARS geom_link_id int 1
LOOKUP_TABLE default
-1 14 -1 16 -1 13 -1 15 9 12 11 6 2 12 7 1 


CELL_DATA 28
SCALARS GMDS_ID int 1
LOOKUP_TABLE default
0 1 2 3 4 5 6 7 8 9 10 11 12 14 16 18 20 21 22 23 24 25 26 27 28 29 30 31 

SCALARS geom_link_dim int 1
LOOKUP_TABLE default
2 0 2 0 2 0 0 0 0 2 0 2 2 0 0 2 0 2 0 0 2 2 2 0 0 0 0 2 

SCALARS geom_link_id int 1
LOOKUP_TABLE default
12 0 12 0 9 0 -1 0 0 5 0 8 9 0 0 6 0 14 0 0 7 7 6 -1 -1 -1 -1 22 

