# vtk DataFile Version 3.0
Generated by GMDS VTK Writer

ASCII
DATASET UNSTRUCTURED_GRID
POINTS 28 float
0 10 0
10 0 0
0 10 10
10 0 10
1 10 0
1 0 0
1 0 10
1 10 10
8 10 0
8 0 0
8 0 10
8 10 10
8 1 0
8 1 10
1 1 10
1 1 0
10 1 0
10 1 10
0 1 10
0 1 0
8 8 0
8 8 10
1 8 10
1 8 0
10 8 0
10 8 10
0 8 10
0 8 0

CELLS 54 162
2 23 4
2 1 9
2 20 8
2 9 5
2 22 7
2 12 20
2 8 4
2 0 2
2 1 3
2 4 0
2 10 13
2 9 12
2 7 2
2 15 23
2 5 6
2 14 22
2 4 7
2 3 10
2 10 6
2 11 7
2 13 21
2 9 10
2 21 11
2 8 11
2 6 14
2 5 15
2 12 13
2 14 13
2 15 14
2 15 12
2 1 16
2 3 17
2 16 17
2 17 13
2 16 12
2 18 14
2 19 18
2 19 15
2 20 21
2 21 22
2 22 23
2 20 23
2 16 24
2 17 25
2 24 25
2 21 25
2 20 24
2 18 26
2 26 2
2 19 27
2 27 0
2 22 26
2 26 27
2 23 27

CELL_TYPES 54
3 
3 
3 
3 
3 
3 
3 
3 
3 
3 
3 
3 
3 
3 
3 
3 
3 
3 
3 
3 
3 
3 
3 
3 
3 
3 
3 
3 
3 
3 
3 
3 
3 
3 
3 
3 
3 
3 
3 
3 
3 
3 
3 
3 
3 
3 
3 
3 
3 
3 
3 
3 
3 
3 
POINT_DATA 28
SCALARS GMDS_ID int 1
LOOKUP_TABLE default
1 3 5 7 8 9 10 11 12 13 14 15 16 17 18 19 20 21 22 23 24 25 26 27 28 29 30 31 
SCALARS geom_link_dim int 1
LOOKUP_TABLE default
1 1 1 1 2 1 1 2 1 2 2 1 3 3 1 1 2 2 1 1 1 1 3 3 1 1 2 2 
SCALARS geom_link_id int 1
LOOKUP_TABLE default
14 16 13 15 4 4 3 3 10 11 10 9 2 4 5 6 12 7 1 2 8 7 4 2 12 11 6 9 


CELL_DATA 54
SCALARS GMDS_ID int 1
LOOKUP_TABLE default
0 1 2 3 4 6 7 9 11 13 14 16 19 20 21 22 23 24 25 27 28 29 30 31 32 34 36 37 38 39 40 42 44 45 46 51 52 53 54 55 56 57 58 60 62 63 64 65 66 67 68 69 70 71 

SCALARS geom_link_dim int 1
LOOKUP_TABLE default
3 2 2 2 3 3 2 2 2 2 3 3 2 3 2 3 3 2 2 2 3 3 2 2 2 2 4 3 2 3 2 2 3 3 3 2 2 2 2 3 3 3 2 2 2 2 2 2 2 2 2 3 3 3 

SCALARS geom_link_id int 1
LOOKUP_TABLE default
1 11 15 11 1 2 4 5 8 4 4 2 3 2 21 4 1 10 10 3 4 6 16 13 18 17 1 4 1 2 12 7 3 4 2 19 22 20 2 4 1 2 12 7 14 24 23 6 6 9 9 4 5 2 

