# vtk DataFile Version 3.0
Generated by GMDS VTK Writer

ASCII
DATASET UNSTRUCTURED_GRID
POINTS 28 float
8 1 10
0 10 0
10 0 0
8 1 0
0 10 10
10 0 10
0 8 0
10 8 0
10 8 10
0 8 10
0 1 0
10 1 0
10 1 10
0 1 10
1 1 0
1 1 10
1 0 10
1 0 0
1 8 0
1 8 10
1 10 0
1 10 10
8 0 10
8 0 0
8 8 0
8 8 10
8 10 0
8 10 10

CELLS 54 162
2 7 11
2 2 23
2 11 2
2 7 24
2 6 10
2 22 16
2 11 3
2 23 22
2 12 0
2 1 4
2 2 5
2 1 6
2 15 13
2 4 9
2 14 10
2 23 17
2 7 8
2 3 0
2 6 9
2 8 12
2 12 5
2 9 13
2 5 22
2 23 3
2 11 12
2 22 0
2 10 13
2 0 15
2 3 14
2 14 15
2 16 15
2 17 16
2 17 14
2 18 6
2 19 9
2 18 19
2 19 15
2 18 14
2 20 1
2 21 4
2 20 21
2 21 19
2 20 18
2 24 18
2 8 25
2 25 19
2 24 25
2 25 0
2 24 3
2 26 20
2 27 21
2 26 27
2 27 25
2 26 24

CELL_TYPES 54
3 
3 
3 
3 
3 
3 
3 
3 
3 
3 
3 
3 
3 
3 
3 
3 
3 
3 
3 
3 
3 
3 
3 
3 
3 
3 
3 
3 
3 
3 
3 
3 
3 
3 
3 
3 
3 
3 
3 
3 
3 
3 
3 
3 
3 
3 
3 
3 
3 
3 
3 
3 
3 
3 
POINT_DATA 28
SCALARS GMDS_ID int 1
LOOKUP_TABLE default
0 1 3 4 5 7 8 9 10 11 12 13 14 15 16 17 18 19 20 21 22 23 24 25 26 27 28 29 
SCALARS geom_link_dim int 1
LOOKUP_TABLE default
3 1 1 3 1 1 2 1 1 2 1 2 2 1 1 1 1 1 3 3 2 2 2 2 1 1 1 1 
SCALARS geom_link_id int 1
LOOKUP_TABLE default
4 14 16 2 13 15 9 12 11 6 2 12 7 1 6 5 3 4 2 4 4 3 10 11 8 7 10 9 


CELL_DATA 54
SCALARS GMDS_ID int 1
LOOKUP_TABLE default
0 1 2 3 4 5 6 7 8 9 11 12 13 18 19 20 21 22 23 24 25 26 27 28 29 30 31 33 35 36 37 38 39 41 43 44 45 46 48 50 51 52 53 54 55 56 57 58 59 61 63 64 65 66 

SCALARS geom_link_dim int 1
LOOKUP_TABLE default
2 2 2 2 2 2 3 3 3 2 2 2 2 2 2 2 2 4 3 2 2 2 2 3 3 3 2 3 3 2 2 2 2 3 3 4 3 3 2 2 3 3 3 3 2 3 2 3 3 2 2 2 2 2 

SCALARS geom_link_id int 1
LOOKUP_TABLE default
12 11 12 23 9 10 2 6 4 5 8 9 19 6 20 11 14 1 5 7 7 6 10 2 3 4 22 4 2 1 18 21 17 2 4 1 4 2 4 3 1 4 2 2 24 4 2 4 2 4 3 13 16 15 

