# vtk DataFile Version 3.0
Generated by GMDS VTK Writer

ASCII
DATASET UNSTRUCTURED_GRID
POINTS 24 float
0 0 0
0 10 0
10 10 0
10 0 0
0 0 10
0 10 10
10 10 10
10 0 10
0 8 0
10 8 0
10 8 10
0 8 10
0 1 0
10 1 0
10 1 10
0 1 10
1 1 0
1 1 10
1 0 10
1 0 0
1 8 0
1 8 10
1 10 0
1 10 10

CELLS 46 138
2 9 13
2 13 3
2 8 12
2 12 0
2 0 4
2 1 5
2 2 6
2 3 7
2 1 8
2 17 15
2 2 9
2 14 17
2 6 10
2 13 16
2 5 11
2 16 12
2 9 10
2 8 11
2 10 14
2 14 7
2 11 15
2 15 4
2 13 14
2 12 15
2 7 18
2 18 4
2 3 19
2 19 0
2 16 17
2 18 17
2 19 18
2 19 16
2 9 20
2 20 8
2 10 21
2 21 11
2 20 21
2 21 17
2 20 16
2 2 22
2 22 1
2 6 23
2 23 5
2 22 23
2 23 21
2 22 20

CELL_TYPES 46
3 
3 
3 
3 
3 
3 
3 
3 
3 
3 
3 
3 
3 
3 
3 
3 
3 
3 
3 
3 
3 
3 
3 
3 
3 
3 
3 
3 
3 
3 
3 
3 
3 
3 
3 
3 
3 
3 
3 
3 
3 
3 
3 
3 
3 
3 
POINT_DATA 24
SCALARS GMDS_ID int 1
LOOKUP_TABLE default
0 1 2 3 4 5 6 7 8 9 10 11 12 13 14 15 16 17 18 19 20 21 22 23 
SCALARS geom_link_dim int 1
LOOKUP_TABLE default
0 1 0 1 0 1 0 1 2 1 1 2 1 2 2 1 1 1 1 1 3 3 2 2 
SCALARS geom_link_id int 1
LOOKUP_TABLE default
-1 14 -1 16 -1 13 -1 15 9 12 11 6 2 12 7 1 6 5 3 4 2 4 4 3 


CELL_DATA 46
SCALARS GMDS_ID int 1
LOOKUP_TABLE default
0 2 4 6 8 9 10 11 12 13 14 15 16 17 18 19 21 23 24 25 26 27 29 31 32 33 34 35 36 37 38 39 40 41 42 43 44 45 46 47 48 49 50 51 52 53 

SCALARS geom_link_dim int 1
LOOKUP_TABLE default
2 2 2 0 0 2 0 2 2 2 0 0 0 0 2 2 2 0 2 2 2 0 0 2 2 0 2 0 0 2 2 2 0 0 0 0 0 0 0 0 0 0 0 0 0 0 

SCALARS geom_link_id int 1
LOOKUP_TABLE default
12 12 9 0 0 5 0 8 9 19 0 -1 0 -1 6 20 14 0 7 7 6 0 0 22 10 -1 11 -1 -1 18 21 17 -1 -1 -1 -1 -1 -1 -1 -1 -1 -1 -1 -1 -1 -1 

