# vtk DataFile Version 3.0
Generated by GMDS VTK Writer

ASCII
DATASET UNSTRUCTURED_GRID
POINTS 30 float
8 1 10
0 10 0
10 10 0
10 0 0
8 1 0
0 10 10
10 10 10
10 0 10
0 8 0
10 8 0
10 8 10
0 8 10
0 1 0
10 1 0
10 1 10
0 1 10
1 1 0
1 1 10
1 0 10
1 0 0
1 8 0
1 8 10
1 10 0
1 10 10
8 0 10
8 0 0
8 8 0
8 8 10
8 10 0
8 10 10

CELLS 59 177
2 9 13
2 3 25
2 13 3
2 9 26
2 8 12
2 24 18
2 13 4
2 25 24
2 14 0
2 1 5
2 2 6
2 3 7
2 1 8
2 17 15
2 2 9
2 6 10
2 5 11
2 16 12
2 25 19
2 9 10
2 4 0
2 8 11
2 10 14
2 14 7
2 11 15
2 7 24
2 25 4
2 13 14
2 24 0
2 12 15
2 0 17
2 4 16
2 16 17
2 18 17
2 19 18
2 19 16
2 20 8
2 21 11
2 20 21
2 21 17
2 20 16
2 22 1
2 23 5
2 22 23
2 23 21
2 22 20
2 26 20
2 10 27
2 27 21
2 26 27
2 27 0
2 26 4
2 2 28
2 28 22
2 6 29
2 29 23
2 28 29
2 29 27
2 28 26

CELL_TYPES 59
3 
3 
3 
3 
3 
3 
3 
3 
3 
3 
3 
3 
3 
3 
3 
3 
3 
3 
3 
3 
3 
3 
3 
3 
3 
3 
3 
3 
3 
3 
3 
3 
3 
3 
3 
3 
3 
3 
3 
3 
3 
3 
3 
3 
3 
3 
3 
3 
3 
3 
3 
3 
3 
3 
3 
3 
3 
3 
3 
POINT_DATA 30
SCALARS GMDS_ID int 1
LOOKUP_TABLE default
0 1 2 3 4 5 6 7 8 9 10 11 12 13 14 15 16 17 18 19 20 21 22 23 24 25 26 27 28 29 
SCALARS geom_link_dim int 1
LOOKUP_TABLE default
3 1 0 1 3 1 0 1 2 1 1 2 1 2 2 1 1 1 1 1 3 3 2 2 2 2 1 1 1 1 
SCALARS geom_link_id int 1
LOOKUP_TABLE default
4 14 -1 16 2 13 -1 15 9 12 11 6 2 12 7 1 6 5 3 4 2 4 4 3 10 11 8 7 10 9 


CELL_DATA 59
SCALARS GMDS_ID int 1
LOOKUP_TABLE default
0 1 2 3 4 5 6 7 8 9 10 11 12 13 14 16 18 19 20 21 22 23 24 25 26 27 28 29 30 31 33 35 36 37 38 39 41 43 44 45 46 48 50 51 52 53 54 55 56 57 58 59 60 61 62 63 64 65 66 

SCALARS geom_link_dim int 1
LOOKUP_TABLE default
2 2 2 2 2 2 0 0 0 2 0 2 2 2 0 0 2 2 2 2 0 0 2 2 2 2 0 0 0 2 0 0 2 2 2 2 0 0 0 0 0 2 2 0 0 0 0 2 0 0 0 0 0 2 0 2 2 2 2 

SCALARS geom_link_id int 1
LOOKUP_TABLE default
12 11 12 23 9 10 -1 -1 -1 5 0 8 9 19 0 0 6 20 11 14 -1 0 7 7 6 10 -1 0 -1 22 -1 -1 1 18 21 17 0 0 0 0 0 4 3 0 0 0 -1 24 -1 -1 -1 -1 -1 4 -1 3 13 16 15 

