# vtk DataFile Version 3.0
Generated by GMDS VTK Writer

ASCII
DATASET UNSTRUCTURED_GRID
POINTS 32 float
0 0 0
0 10 0
10 10 0
10 0 0
0 0 10
0 10 10
10 10 10
10 0 10
0 1 0
0 1 10
10 1 10
10 1 0
1 0 0
1 0 10
1 1 10
1 1 0
1 10 10
1 10 0
10 8 10
10 8 0
1 8 0
1 8 10
0 8 0
0 8 10
8 0 0
8 0 10
8 1 10
8 1 0
8 8 10
8 8 0
8 10 0
8 10 10

CELLS 62 186
2 13 4
2 10 18
2 20 17
2 12 0
2 18 6
2 15 20
2 0 4
2 1 5
2 2 6
2 3 7
2 0 8
2 3 24
2 4 9
2 7 10
2 10 26
2 3 11
2 26 14
2 8 9
2 11 19
2 11 10
2 19 2
2 14 9
2 15 8
2 12 13
2 13 14
2 14 15
2 12 15
2 16 5
2 17 1
2 7 25
2 17 16
2 14 21
2 21 16
2 18 19
2 21 20
2 8 22
2 22 1
2 9 23
2 23 5
2 22 20
2 22 23
2 23 21
2 11 27
2 27 15
2 24 25
2 25 26
2 26 27
2 24 27
2 18 28
2 28 21
2 19 29
2 29 20
2 2 30
2 30 17
2 6 31
2 31 16
2 28 29
2 30 29
2 30 31
2 31 28
2 27 29
2 26 28

CELL_TYPES 62
3 
3 
3 
3 
3 
3 
3 
3 
3 
3 
3 
3 
3 
3 
3 
3 
3 
3 
3 
3 
3 
3 
3 
3 
3 
3 
3 
3 
3 
3 
3 
3 
3 
3 
3 
3 
3 
3 
3 
3 
3 
3 
3 
3 
3 
3 
3 
3 
3 
3 
3 
3 
3 
3 
3 
3 
3 
3 
3 
3 
3 
3 
POINT_DATA 32
SCALARS GMDS_ID int 1
LOOKUP_TABLE default
0 1 2 3 4 5 6 7 8 9 10 11 12 13 14 15 16 17 18 19 20 21 22 23 24 25 26 27 28 29 30 31 
SCALARS geom_link_dim_0 int 1
LOOKUP_TABLE default
0 0 0 0 0 0 0 0 0 0 0 0 0 0 0 0 0 0 0 0 0 0 0 0 0 0 0 0 0 0 0 0 
SCALARS geom_link_id_0 int 1
LOOKUP_TABLE default
0 0 0 0 0 0 0 0 0 0 0 0 0 0 0 0 0 0 0 0 0 0 0 0 0 0 0 0 0 0 0 0 


CELL_DATA 62
SCALARS GMDS_ID int 1
LOOKUP_TABLE default
0 1 3 4 5 7 8 9 10 11 12 13 14 16 17 18 19 20 21 22 23 25 27 28 29 30 31 33 35 36 37 39 40 41 43 45 46 47 48 49 50 51 52 53 54 55 56 57 58 59 60 61 62 63 64 65 66 67 68 69 70 71 

SCALARS geom_link_dim_0 int 1
LOOKUP_TABLE default
0 0 0 0 0 0 0 0 0 0 0 0 0 0 0 0 0 0 0 0 0 0 0 0 0 0 0 0 0 0 0 0 0 0 0 0 0 0 0 0 0 0 0 0 0 0 0 0 0 0 0 0 0 0 0 0 0 0 0 0 0 0 

SCALARS geom_link_id_0 int 1
LOOKUP_TABLE default
0 0 0 0 0 0 0 0 0 0 0 0 0 0 0 0 0 0 0 0 0 0 0 0 0 0 0 0 0 0 0 0 0 0 0 0 0 0 0 0 0 0 0 0 0 0 0 0 0 0 0 0 0 0 0 0 0 0 0 0 0 0 

