# vtk DataFile Version 3.0
Generated by GMDS VTK Writer

ASCII
DATASET UNSTRUCTURED_GRID
POINTS 22 float
0 10 0
10 10 0
10 0 0
0 10 10
10 10 10
10 0 10
0 8 0
10 8 0
10 8 10
0 8 10
0 1 0
10 1 0
10 1 10
0 1 10
1 1 0
1 1 10
1 0 10
1 0 0
1 8 0
1 8 10
1 10 0
1 10 10

CELLS 41 123
2 7 11
2 11 2
2 6 10
2 0 3
2 1 4
2 2 5
2 0 6
2 15 13
2 1 7
2 12 15
2 4 8
2 11 14
2 3 9
2 14 10
2 7 8
2 6 9
2 8 12
2 12 5
2 9 13
2 11 12
2 10 13
2 5 16
2 2 17
2 14 15
2 16 15
2 17 16
2 17 14
2 7 18
2 18 6
2 8 19
2 19 9
2 18 19
2 19 15
2 18 14
2 1 20
2 20 0
2 4 21
2 21 3
2 20 21
2 21 19
2 20 18

CELL_TYPES 41
3 
3 
3 
3 
3 
3 
3 
3 
3 
3 
3 
3 
3 
3 
3 
3 
3 
3 
3 
3 
3 
3 
3 
3 
3 
3 
3 
3 
3 
3 
3 
3 
3 
3 
3 
3 
3 
3 
3 
3 
3 
POINT_DATA 22
SCALARS GMDS_ID int 1
LOOKUP_TABLE default
1 2 3 5 6 7 8 9 10 11 12 13 14 15 16 17 18 19 20 21 22 23 
SCALARS geom_link_dim int 1
LOOKUP_TABLE default
1 0 1 1 0 1 2 1 1 2 1 2 2 1 1 1 1 1 3 3 2 2 
SCALARS geom_link_id int 1
LOOKUP_TABLE default
14 -1 16 13 -1 15 9 12 11 6 2 12 7 1 6 5 3 4 2 4 4 3 


CELL_DATA 41
SCALARS GMDS_ID int 1
LOOKUP_TABLE default
0 2 4 9 10 11 12 13 14 15 16 17 18 19 21 23 24 25 26 29 31 32 34 36 37 38 39 40 41 42 43 44 45 46 47 48 49 50 51 52 53 

SCALARS geom_link_dim int 1
LOOKUP_TABLE default
2 2 2 2 0 2 2 2 0 0 0 0 2 2 2 0 2 2 2 0 2 2 2 2 2 2 2 0 0 0 0 0 0 0 0 0 0 0 0 0 0 

SCALARS geom_link_id int 1
LOOKUP_TABLE default
12 12 9 5 0 8 9 19 0 0 0 0 6 20 14 0 7 7 6 0 22 10 11 1 18 21 17 0 0 0 0 0 0 0 0 0 0 0 0 0 0 

