# vtk DataFile Version 3.0
Generated by GMDS VTK Writer

ASCII
DATASET UNSTRUCTURED_GRID
POINTS 30 float
0 10 0
10 10 0
10 0 0
0 10 10
10 10 10
10 0 10
1 10 0
1 0 0
1 0 10
1 10 10
8 10 0
8 0 0
8 0 10
8 10 10
8 1 0
8 1 10
1 1 10
1 1 0
10 1 0
10 1 10
0 1 10
0 1 0
8 8 0
8 8 10
1 8 10
1 8 0
10 8 0
10 8 10
0 8 10
0 8 0

CELLS 38 190
4 11 12 8 7 
4 18 19 27 26 
4 2 5 12 11 
4 22 23 24 25 
4 22 25 6 10 
4 14 17 25 22 
4 24 25 6 9 
4 8 12 15 16 
4 16 17 25 24 
4 11 12 15 14 
4 6 9 3 0 
4 23 24 9 13 
4 15 16 24 23 
4 22 23 13 10 
4 1 4 13 10 
4 10 13 9 6 
4 14 15 23 22 
4 7 8 16 17 
4 7 11 14 17 
4 14 15 16 17 
4 2 5 19 18 
4 5 12 15 19 
4 2 11 14 18 
4 18 19 15 14 
4 17 16 20 21 
4 26 27 4 1 
4 15 19 27 23 
4 23 27 4 13 
4 14 18 26 22 
4 22 26 1 10 
4 26 27 23 22 
4 16 20 28 24 
4 24 28 3 9 
4 20 21 29 28 
4 28 29 0 3 
4 17 21 29 25 
4 25 29 0 6 
4 25 24 28 29 

CELL_TYPES 38
9 
9 
9 
9 
9 
9 
9 
9 
9 
9 
9 
9 
9 
9 
9 
9 
9 
9 
9 
9 
9 
9 
9 
9 
9 
9 
9 
9 
9 
9 
9 
9 
9 
9 
9 
9 
9 
9 
POINT_DATA 30
SCALARS GMDS_ID int 1
LOOKUP_TABLE default
1 2 3 5 6 7 8 9 10 11 12 13 14 15 16 17 18 19 20 21 22 23 24 25 26 27 28 29 30 31 
SCALARS geom_link_dim_0 int 1
LOOKUP_TABLE default
0 0 0 0 0 0 0 0 0 0 0 0 0 0 0 0 0 0 0 0 0 0 0 0 0 0 0 0 0 0 
SCALARS geom_link_id_0 int 1
LOOKUP_TABLE default
0 0 0 0 0 0 0 0 0 0 0 0 0 0 0 0 0 0 0 0 0 0 0 0 0 0 0 0 0 0 


CELL_DATA 38
SCALARS GMDS_ID int 1
LOOKUP_TABLE default
0 1 2 3 4 5 7 8 11 12 13 14 15 16 17 18 19 20 22 24 25 27 29 31 38 39 40 41 42 43 44 45 46 47 48 49 50 51 

SCALARS geom_link_dim_0 int 1
LOOKUP_TABLE default
0 0 0 0 0 0 0 0 0 0 0 0 0 0 0 0 0 0 0 0 0 0 0 0 0 0 0 0 0 0 0 0 0 0 0 0 0 0 

SCALARS geom_link_id_0 int 1
LOOKUP_TABLE default
0 0 0 0 0 0 0 0 0 0 0 0 0 0 0 0 0 0 0 0 0 0 0 0 0 0 0 0 0 0 0 0 0 0 0 0 0 0 

