# vtk DataFile Version 3.0
Generated by GMDS VTK Writer

ASCII
DATASET UNSTRUCTURED_GRID
POINTS 32 float
0 0 0
0 10 0
10 10 0
10 0 0
0 0 10
0 10 10
10 10 10
10 0 10
1 10 0
1 0 0
1 0 10
1 10 10
8 10 0
8 0 0
8 0 10
8 10 10
8 1 0
8 1 10
1 1 10
1 1 0
10 1 0
10 1 10
0 1 10
0 1 0
8 8 0
8 8 10
1 8 10
1 8 0
10 8 0
10 8 10
0 8 10
0 8 0

CELLS 42 210
4 13 14 10 9 
4 20 21 29 28 
4 3 7 14 13 
4 24 25 26 27 
4 24 27 8 12 
4 16 19 27 24 
4 26 27 8 11 
4 10 14 17 18 
4 9 10 4 0 
4 18 19 27 26 
4 13 14 17 16 
4 8 11 5 1 
4 25 26 11 15 
4 17 18 26 25 
4 24 25 15 12 
4 2 6 15 12 
4 12 15 11 8 
4 16 17 25 24 
4 9 10 18 19 
4 9 13 16 19 
4 16 17 18 19 
4 3 7 21 20 
4 7 14 17 21 
4 3 13 16 20 
4 20 21 17 16 
4 4 10 18 22 
4 0 4 22 23 
4 0 9 19 23 
4 19 18 22 23 
4 28 29 6 2 
4 17 21 29 25 
4 25 29 6 15 
4 16 20 28 24 
4 24 28 2 12 
4 28 29 25 24 
4 18 22 30 26 
4 26 30 5 11 
4 22 23 31 30 
4 30 31 1 5 
4 19 23 31 27 
4 27 31 1 8 
4 27 26 30 31 

CELL_TYPES 42
9 
9 
9 
9 
9 
9 
9 
9 
9 
9 
9 
9 
9 
9 
9 
9 
9 
9 
9 
9 
9 
9 
9 
9 
9 
9 
9 
9 
9 
9 
9 
9 
9 
9 
9 
9 
9 
9 
9 
9 
9 
9 
POINT_DATA 32
SCALARS GMDS_ID int 1
LOOKUP_TABLE default
0 1 2 3 4 5 6 7 8 9 10 11 12 13 14 15 16 17 18 19 20 21 22 23 24 25 26 27 28 29 30 31 
SCALARS geom_link_dim int 1
LOOKUP_TABLE default
0 1 0 1 0 1 0 1 2 1 1 2 1 2 2 1 3 3 1 1 2 2 1 1 1 1 3 3 1 1 2 2 
SCALARS geom_link_id int 1
LOOKUP_TABLE default
-1 14 -1 16 -1 13 -1 15 4 4 3 3 10 11 10 9 2 4 5 6 12 7 1 2 8 7 4 2 12 11 6 9 


CELL_DATA 42
SCALARS GMDS_ID int 1
LOOKUP_TABLE default
0 1 2 3 4 5 7 8 9 11 12 13 14 15 16 17 18 19 20 22 24 25 27 29 31 32 34 36 38 39 40 41 42 43 44 45 46 47 48 49 50 51 

SCALARS geom_link_dim int 1
LOOKUP_TABLE default
0 0 0 0 0 0 0 0 0 0 0 0 0 0 0 0 0 0 0 0 0 0 0 0 0 0 0 0 0 0 0 0 0 0 0 0 0 0 0 0 0 0 

SCALARS geom_link_id int 1
LOOKUP_TABLE default
0 -1 0 -1 -1 -1 -1 0 0 -1 0 0 -1 -1 -1 0 0 -1 0 0 0 0 0 0 0 0 0 0 0 -1 -1 -1 -1 -1 -1 -1 -1 -1 -1 -1 -1 -1 

