# vtk DataFile Version 3.0
Generated by GMDS VTK Writer

ASCII
DATASET UNSTRUCTURED_GRID
POINTS 30 float
8 1 10
0 10 0
10 10 0
10 0 0
8 1 0
0 10 10
10 10 10
10 0 10
0 8 0
10 8 0
10 8 10
0 8 10
0 1 0
10 1 0
10 1 10
0 1 10
1 1 0
1 1 10
1 0 10
1 0 0
1 8 0
1 8 10
1 10 0
1 10 10
8 0 10
8 0 0
8 8 0
8 8 10
8 10 0
8 10 10

CELLS 38 190
4 13 14 7 3 
4 9 10 14 13 
4 9 13 4 26 
4 27 0 17 21 
4 10 14 0 27 
4 26 27 21 20 
4 9 10 27 26 
4 7 14 0 24 
4 2 6 10 9 
4 4 0 24 25 
4 16 17 15 12 
4 1 5 11 8 
4 25 4 16 19 
4 3 13 4 25 
4 25 24 18 19 
4 8 11 15 12 
4 24 0 17 18 
4 3 7 24 25 
4 4 0 17 16 
4 13 14 0 4 
4 16 17 18 19 
4 20 21 11 8 
4 21 17 15 11 
4 20 16 12 8 
4 20 21 17 16 
4 22 23 5 1 
4 23 21 11 5 
4 22 20 8 1 
4 22 23 21 20 
4 26 4 16 20 
4 26 27 0 4 
4 2 6 29 28 
4 28 29 23 22 
4 6 10 27 29 
4 29 27 21 23 
4 2 9 26 28 
4 28 26 20 22 
4 28 29 27 26 

CELL_TYPES 38
9 
9 
9 
9 
9 
9 
9 
9 
9 
9 
9 
9 
9 
9 
9 
9 
9 
9 
9 
9 
9 
9 
9 
9 
9 
9 
9 
9 
9 
9 
9 
9 
9 
9 
9 
9 
9 
9 
POINT_DATA 30
SCALARS GMDS_ID int 1
LOOKUP_TABLE default
0 1 2 3 4 5 6 7 8 9 10 11 12 13 14 15 16 17 18 19 20 21 22 23 24 25 26 27 28 29 
SCALARS geom_link_dim int 1
LOOKUP_TABLE default
3 1 0 1 3 1 0 1 2 1 1 2 1 2 2 1 1 1 1 1 3 3 2 2 2 2 1 1 1 1 
SCALARS geom_link_id int 1
LOOKUP_TABLE default
4 14 -1 16 2 13 -1 15 9 12 11 6 2 12 7 1 6 5 3 4 2 4 4 3 10 11 8 7 10 9 


CELL_DATA 38
SCALARS GMDS_ID int 1
LOOKUP_TABLE default
0 1 2 3 4 5 6 7 8 10 11 12 14 15 16 17 18 19 21 23 24 26 28 30 31 33 35 37 38 39 40 41 42 43 44 45 46 47 

SCALARS geom_link_dim int 1
LOOKUP_TABLE default
0 0 0 0 0 0 0 0 0 0 0 0 0 0 0 0 0 0 0 0 0 0 0 0 0 0 0 0 0 0 0 0 0 0 0 0 0 0 

SCALARS geom_link_id int 1
LOOKUP_TABLE default
0 0 -1 -1 -1 -1 -1 -1 0 -1 0 0 -1 -1 -1 0 -1 -1 -1 -1 0 0 0 0 0 0 0 0 0 -1 -1 -1 -1 -1 -1 -1 -1 -1 

