# vtk DataFile Version 3.0
Generated by GMDS VTK Writer

ASCII
DATASET UNSTRUCTURED_GRID
POINTS 28 float
0 10 0
10 0 0
0 10 10
10 0 10
1 10 0
1 0 0
1 0 10
1 10 10
8 10 0
8 0 0
8 0 10
8 10 10
8 1 0
8 1 10
1 1 10
1 1 0
10 1 0
10 1 10
0 1 10
0 1 0
8 8 0
8 8 10
1 8 10
1 8 0
10 8 0
10 8 10
0 8 10
0 8 0

CELLS 34 170
4 9 10 6 5 
4 16 17 25 24 
4 1 3 10 9 
4 20 21 22 23 
4 20 23 4 8 
4 12 15 23 20 
4 22 23 4 7 
4 6 10 13 14 
4 14 15 23 22 
4 9 10 13 12 
4 4 7 2 0 
4 21 22 7 11 
4 13 14 22 21 
4 20 21 11 8 
4 8 11 7 4 
4 12 13 21 20 
4 5 6 14 15 
4 5 9 12 15 
4 12 13 14 15 
4 1 3 17 16 
4 3 10 13 17 
4 1 9 12 16 
4 16 17 13 12 
4 15 14 18 19 
4 13 17 25 21 
4 12 16 24 20 
4 24 25 21 20 
4 14 18 26 22 
4 22 26 2 7 
4 18 19 27 26 
4 26 27 0 2 
4 15 19 27 23 
4 23 27 0 4 
4 23 22 26 27 

CELL_TYPES 34
9 
9 
9 
9 
9 
9 
9 
9 
9 
9 
9 
9 
9 
9 
9 
9 
9 
9 
9 
9 
9 
9 
9 
9 
9 
9 
9 
9 
9 
9 
9 
9 
9 
9 
POINT_DATA 28
SCALARS GMDS_ID int 1
LOOKUP_TABLE default
1 3 5 7 8 9 10 11 12 13 14 15 16 17 18 19 20 21 22 23 24 25 26 27 28 29 30 31 
SCALARS geom_link_dim_0 int 1
LOOKUP_TABLE default
0 0 0 0 0 0 0 0 0 0 0 0 0 0 0 0 0 0 0 0 0 0 0 0 0 0 0 0 
SCALARS geom_link_id_0 int 1
LOOKUP_TABLE default
0 0 0 0 0 0 0 0 0 0 0 0 0 0 0 0 0 0 0 0 0 0 0 0 0 0 0 0 


CELL_DATA 34
SCALARS GMDS_ID int 1
LOOKUP_TABLE default
0 1 2 3 4 5 7 8 11 12 13 14 15 16 18 19 20 22 24 25 27 29 31 38 40 42 44 45 46 47 48 49 50 51 

SCALARS geom_link_dim_0 int 1
LOOKUP_TABLE default
0 0 0 0 0 0 0 0 0 0 0 0 0 0 0 0 0 0 0 0 0 0 0 0 0 0 0 0 0 0 0 0 0 0 

SCALARS geom_link_id_0 int 1
LOOKUP_TABLE default
0 0 0 0 0 0 0 0 0 0 0 0 0 0 0 0 0 0 0 0 0 0 0 0 0 0 0 0 0 0 0 0 0 0 

