# vtk DataFile Version 3.0
Generated by GMDS VTK Writer

ASCII
DATASET UNSTRUCTURED_GRID
POINTS 22 float
0 10 0
10 10 0
10 0 0
0 10 10
10 10 10
10 0 10
0 8 0
10 8 0
10 8 10
0 8 10
0 1 0
10 1 0
10 1 10
0 1 10
1 1 0
1 1 10
1 0 10
1 0 0
1 8 0
1 8 10
1 10 0
1 10 10

CELLS 25 125
4 11 12 5 2 
4 7 8 12 11 
4 1 4 8 7 
4 5 12 15 16 
4 14 15 13 10 
4 0 3 9 6 
4 11 12 15 14 
4 6 9 13 10 
4 2 5 16 17 
4 2 11 14 17 
4 14 15 16 17 
4 7 8 19 18 
4 18 19 9 6 
4 8 12 15 19 
4 19 15 13 9 
4 7 11 14 18 
4 18 14 10 6 
4 18 19 15 14 
4 1 4 21 20 
4 20 21 3 0 
4 4 8 19 21 
4 21 19 9 3 
4 1 7 18 20 
4 20 18 6 0 
4 20 21 19 18 

CELL_TYPES 25
9 
9 
9 
9 
9 
9 
9 
9 
9 
9 
9 
9 
9 
9 
9 
9 
9 
9 
9 
9 
9 
9 
9 
9 
9 
POINT_DATA 22
SCALARS GMDS_ID int 1
LOOKUP_TABLE default
1 2 3 5 6 7 8 9 10 11 12 13 14 15 16 17 18 19 20 21 22 23 
SCALARS geom_link_dim int 1
LOOKUP_TABLE default
1 0 1 1 0 1 2 1 1 2 1 2 2 1 1 1 1 1 3 3 2 2 
SCALARS geom_link_id int 1
LOOKUP_TABLE default
14 -1 16 13 -1 15 9 12 11 6 2 12 7 1 6 5 3 4 2 4 4 3 


CELL_DATA 25
SCALARS GMDS_ID int 1
LOOKUP_TABLE default
0 1 8 9 11 12 13 17 20 22 24 25 26 27 28 29 30 31 32 33 34 35 36 37 38 

SCALARS geom_link_dim int 1
LOOKUP_TABLE default
0 0 0 0 0 0 0 0 0 0 0 0 0 0 0 0 0 0 0 0 0 0 0 0 0 

SCALARS geom_link_id int 1
LOOKUP_TABLE default
0 0 0 0 0 0 0 0 0 0 0 0 0 0 0 0 0 0 0 0 0 0 0 0 0 

