# vtk DataFile Version 3.0
Generated by GMDS VTK Writer

ASCII
DATASET UNSTRUCTURED_GRID
POINTS 28 float
8 1 10
0 10 0
10 0 0
8 1 0
0 10 10
10 0 10
0 8 0
10 8 0
10 8 10
0 8 10
0 1 0
10 1 0
10 1 10
0 1 10
1 1 0
1 1 10
1 0 10
1 0 0
1 8 0
1 8 10
1 10 0
1 10 10
8 0 10
8 0 0
8 8 0
8 8 10
8 10 0
8 10 10

CELLS 34 170
4 11 12 5 2 
4 7 8 12 11 
4 7 11 3 24 
4 25 0 15 19 
4 8 12 0 25 
4 24 25 19 18 
4 7 8 25 24 
4 5 12 0 22 
4 3 0 22 23 
4 14 15 13 10 
4 1 4 9 6 
4 23 3 14 17 
4 2 11 3 23 
4 23 22 16 17 
4 6 9 13 10 
4 22 0 15 16 
4 2 5 22 23 
4 3 0 15 14 
4 11 12 0 3 
4 14 15 16 17 
4 18 19 9 6 
4 19 15 13 9 
4 18 14 10 6 
4 18 19 15 14 
4 20 21 4 1 
4 21 19 9 4 
4 20 18 6 1 
4 20 21 19 18 
4 24 3 14 18 
4 24 25 0 3 
4 26 27 21 20 
4 27 25 19 21 
4 26 24 18 20 
4 26 27 25 24 

CELL_TYPES 34
9 
9 
9 
9 
9 
9 
9 
9 
9 
9 
9 
9 
9 
9 
9 
9 
9 
9 
9 
9 
9 
9 
9 
9 
9 
9 
9 
9 
9 
9 
9 
9 
9 
9 
POINT_DATA 28
SCALARS GMDS_ID int 1
LOOKUP_TABLE default
0 1 3 4 5 7 8 9 10 11 12 13 14 15 16 17 18 19 20 21 22 23 24 25 26 27 28 29 
SCALARS geom_link_dim int 1
LOOKUP_TABLE default
3 1 1 3 1 1 2 1 1 2 1 2 2 1 1 1 1 1 3 3 2 2 2 2 1 1 1 1 
SCALARS geom_link_id int 1
LOOKUP_TABLE default
4 14 16 2 13 15 9 12 11 6 2 12 7 1 6 5 3 4 2 4 4 3 10 11 8 7 10 9 


CELL_DATA 34
SCALARS GMDS_ID int 1
LOOKUP_TABLE default
0 1 2 3 4 5 6 7 10 11 12 14 15 16 17 18 19 21 23 24 26 28 30 31 33 35 37 38 39 40 42 44 46 47 

SCALARS geom_link_dim int 1
LOOKUP_TABLE default
3 3 3 3 3 4 3 3 4 3 3 3 3 3 3 3 3 4 4 3 4 3 3 4 3 3 3 4 3 4 3 3 3 3 

SCALARS geom_link_id int 1
LOOKUP_TABLE default
3 3 2 4 4 1 7 4 1 9 5 2 2 6 5 4 6 1 1 10 1 4 2 1 1 4 2 1 2 1 1 4 2 8 

