# vtk DataFile Version 3.0
Generated by GMDS VTK Writer

ASCII
DATASET UNSTRUCTURED_GRID
POINTS 32 float
0 0 0
0 10 0
10 10 0
10 0 0
0 0 10
0 10 10
10 10 10
10 0 10
0 1 0
0 1 10
10 1 10
10 1 0
1 0 0
1 0 10
1 1 10
1 1 0
1 10 10
1 10 0
10 8 10
10 8 0
1 8 0
1 8 10
0 8 0
0 8 10
8 0 0
8 0 10
8 1 10
8 1 0
8 8 10
8 8 0
8 10 0
8 10 10

CELLS 39 195
4 13 14 9 4 
4 12 13 4 0 
4 21 20 17 16 
4 0 4 9 8 
4 3 11 27 24 
4 14 15 20 21 
4 3 7 10 11 
4 26 27 15 14 
4 18 19 2 6 
4 10 11 19 18 
4 14 15 8 9 
4 12 15 8 0 
4 12 13 14 15 
4 10 11 27 26 
4 17 16 5 1 
4 7 10 26 25 
4 3 7 25 24 
4 8 15 20 22 
4 22 20 17 1 
4 8 9 23 22 
4 22 23 5 1 
4 9 14 21 23 
4 23 21 16 5 
4 21 20 22 23 
4 24 25 26 27 
4 18 19 29 28 
4 28 29 20 21 
4 2 19 29 30 
4 30 29 20 17 
4 2 6 31 30 
4 30 31 16 17 
4 6 18 28 31 
4 31 28 21 16 
4 28 29 30 31 
4 11 19 29 27 
4 27 29 20 15 
4 10 18 28 26 
4 26 28 21 14 
4 26 27 29 28 

CELL_TYPES 39
9 
9 
9 
9 
9 
9 
9 
9 
9 
9 
9 
9 
9 
9 
9 
9 
9 
9 
9 
9 
9 
9 
9 
9 
9 
9 
9 
9 
9 
9 
9 
9 
9 
9 
9 
9 
9 
9 
9 
POINT_DATA 32
SCALARS GMDS_ID int 1
LOOKUP_TABLE default
0 1 2 3 4 5 6 7 8 9 10 11 12 13 14 15 16 17 18 19 20 21 22 23 24 25 26 27 28 29 30 31 
SCALARS geom_link_dim_0 int 1
LOOKUP_TABLE default
0 0 0 0 0 0 0 0 0 0 0 0 0 0 0 0 0 0 0 0 0 0 0 0 0 0 0 0 0 0 0 0 
SCALARS geom_link_id_0 int 1
LOOKUP_TABLE default
0 0 0 0 0 0 0 0 0 0 0 0 0 0 0 0 0 0 0 0 0 0 0 0 0 0 0 0 0 0 0 0 


CELL_DATA 39
SCALARS GMDS_ID int 1
LOOKUP_TABLE default
0 3 4 6 7 8 10 11 13 14 16 18 19 20 23 24 26 29 30 31 32 33 34 35 37 38 39 40 41 42 43 44 45 46 47 48 49 50 51 

SCALARS geom_link_dim_0 int 1
LOOKUP_TABLE default
0 0 0 0 0 0 0 0 0 0 0 0 0 0 0 0 0 0 0 0 0 0 0 0 0 0 0 0 0 0 0 0 0 0 0 0 0 0 0 

SCALARS geom_link_id_0 int 1
LOOKUP_TABLE default
0 0 0 0 0 0 0 0 0 0 0 0 0 0 0 0 0 0 0 0 0 0 0 0 0 0 0 0 0 0 0 0 0 0 0 0 0 0 0 

