# vtk DataFile Version 3.0
Generated by GMDS VTK Writer

ASCII
DATASET UNSTRUCTURED_GRID
POINTS 24 float
0 0 0
0 10 0
10 10 0
10 0 0
0 0 10
0 10 10
10 10 10
10 0 10
0 1 0
0 1 10
10 1 10
10 1 0
1 0 0
1 0 10
1 1 10
1 1 0
1 10 10
1 10 0
10 8 10
10 8 0
1 8 0
1 8 10
0 8 0
0 8 10

CELLS 29 145
4 13 14 9 4 
4 7 10 14 13 
4 10 14 21 18 
4 12 13 4 0 
4 21 20 17 16 
4 3 7 13 12 
4 0 4 9 8 
4 14 15 20 21 
4 19 20 17 2 
4 3 7 10 11 
4 11 15 20 19 
4 18 19 2 6 
4 10 11 19 18 
4 10 11 15 14 
4 14 15 8 9 
4 3 11 15 12 
4 12 15 8 0 
4 12 13 14 15 
4 2 6 16 17 
4 17 16 5 1 
4 18 21 16 6 
4 18 19 20 21 
4 8 15 20 22 
4 22 20 17 1 
4 8 9 23 22 
4 22 23 5 1 
4 9 14 21 23 
4 23 21 16 5 
4 21 20 22 23 

CELL_TYPES 29
9 
9 
9 
9 
9 
9 
9 
9 
9 
9 
9 
9 
9 
9 
9 
9 
9 
9 
9 
9 
9 
9 
9 
9 
9 
9 
9 
9 
9 
POINT_DATA 24
SCALARS GMDS_ID int 1
LOOKUP_TABLE default
0 1 2 3 4 5 6 7 8 9 10 11 12 13 14 15 16 17 18 19 20 21 22 23 
SCALARS geom_link_dim_0 int 1
LOOKUP_TABLE default
0 0 0 0 0 0 0 0 0 0 0 0 0 0 0 0 0 0 0 0 0 0 0 0 
SCALARS geom_link_id_0 int 1
LOOKUP_TABLE default
0 0 0 0 0 0 0 0 0 0 0 0 0 0 0 0 0 0 0 0 0 0 0 0 


CELL_DATA 29
SCALARS GMDS_ID int 1
LOOKUP_TABLE default
0 1 2 3 4 5 6 8 9 10 12 13 14 15 16 17 18 19 22 23 27 28 29 30 31 32 33 34 35 

SCALARS geom_link_dim_0 int 1
LOOKUP_TABLE default
0 0 0 0 0 0 0 0 0 0 0 0 0 0 0 0 0 0 0 0 0 0 0 0 0 0 0 0 0 

SCALARS geom_link_id_0 int 1
LOOKUP_TABLE default
0 0 0 0 0 0 0 0 0 0 0 0 0 0 0 0 0 0 0 0 0 0 0 0 0 0 0 0 0 

