# vtk DataFile Version 3.0
Generated by GMDS VTK Writer

ASCII
DATASET UNSTRUCTURED_GRID
POINTS 28 float
1 8 10
0 10 0
10 0 0
1 8 0
0 10 10
10 0 10
8 0 0
8 10 0
8 10 10
8 0 10
0 1 0
0 1 10
8 1 10
8 1 0
10 1 10
10 1 0
1 1 0
1 1 10
1 10 10
1 10 0
1 0 0
1 0 10
8 8 10
8 8 0
0 8 0
0 8 10
10 8 10
10 8 0

CELLS 34 170
4 24 25 4 1 
4 10 11 25 24 
4 19 18 8 7 
4 22 0 18 8 
4 1 4 18 19 
4 3 0 22 23 
4 16 17 12 13 
4 23 3 19 7 
4 6 9 5 2 
4 10 11 17 16 
4 6 9 12 13 
4 13 16 3 23 
4 22 23 7 8 
4 12 13 23 22 
4 5 9 12 14 
4 2 5 14 15 
4 2 6 13 15 
4 13 12 14 15 
4 12 17 0 22 
4 20 21 9 6 
4 3 0 18 19 
4 21 17 12 9 
4 16 17 0 3 
4 20 16 13 6 
4 20 21 17 16 
4 11 17 0 25 
4 25 0 18 4 
4 10 16 3 24 
4 24 3 19 1 
4 24 25 0 3 
4 12 14 26 22 
4 14 15 27 26 
4 13 15 27 23 
4 23 22 26 27 

CELL_TYPES 34
9 
9 
9 
9 
9 
9 
9 
9 
9 
9 
9 
9 
9 
9 
9 
9 
9 
9 
9 
9 
9 
9 
9 
9 
9 
9 
9 
9 
9 
9 
9 
9 
9 
9 
POINT_DATA 28
SCALARS GMDS_ID int 1
LOOKUP_TABLE default
0 1 3 4 5 7 8 9 10 11 12 13 14 15 16 17 18 19 20 21 22 23 24 25 26 27 28 29 
SCALARS geom_link_dim_0 int 1
LOOKUP_TABLE default
0 0 0 0 0 0 0 0 0 0 0 0 0 0 0 0 0 0 0 0 0 0 0 0 0 0 0 0 
SCALARS geom_link_id_0 int 1
LOOKUP_TABLE default
0 0 0 0 0 0 0 0 0 0 0 0 0 0 0 0 0 0 0 0 0 0 0 0 0 0 0 0 


CELL_DATA 34
SCALARS GMDS_ID int 1
LOOKUP_TABLE default
0 2 3 5 6 8 11 12 13 14 15 17 18 19 20 22 24 26 29 30 31 32 33 34 35 36 37 38 39 40 41 43 45 47 

SCALARS geom_link_dim_0 int 1
LOOKUP_TABLE default
0 0 0 0 0 0 0 0 0 0 0 0 0 0 0 0 0 0 0 0 0 0 0 0 0 0 0 0 0 0 0 0 0 0 

SCALARS geom_link_id_0 int 1
LOOKUP_TABLE default
0 0 0 0 0 0 0 0 0 0 0 0 0 0 0 0 0 0 0 0 0 0 0 0 0 0 0 0 0 0 0 0 0 0 

