# vtk DataFile Version 3.0
Generated by GMDS VTK Writer

ASCII
DATASET UNSTRUCTURED_GRID
POINTS 12 float
0 0 0
0 10 0
10 10 0
10 0 0
0 0 10
0 10 10
10 10 10
10 0 10
1 10 0
1 0 0
1 0 10
1 10 10

CELLS 11 55
4 0 1 5 4 
4 2 3 7 6 
4 2 3 9 8 
4 8 9 0 1 
4 3 7 10 9 
4 9 10 4 0 
4 6 7 10 11 
4 11 10 4 5 
4 2 6 11 8 
4 8 11 5 1 
4 8 9 10 11 

CELL_TYPES 11
9 
9 
9 
9 
9 
9 
9 
9 
9 
9 
9 
POINT_DATA 12
SCALARS GMDS_ID int 1
LOOKUP_TABLE default
0 1 2 3 4 5 6 7 8 9 10 11 
SCALARS geom_link_dim_0 int 1
LOOKUP_TABLE default
0 0 0 0 0 0 0 0 0 0 0 0 
SCALARS geom_link_id_0 int 1
LOOKUP_TABLE default
0 0 0 0 0 0 0 0 0 0 0 0 


CELL_DATA 11
SCALARS GMDS_ID int 1
LOOKUP_TABLE default
1 3 6 7 8 9 10 11 12 13 14 

SCALARS geom_link_dim_0 int 1
LOOKUP_TABLE default
0 0 0 0 0 0 0 0 0 0 0 

SCALARS geom_link_id_0 int 1
LOOKUP_TABLE default
0 0 0 0 0 0 0 0 0 0 0 

