# vtk DataFile Version 3.0
Generated by GMDS VTK Writer

ASCII
DATASET UNSTRUCTURED_GRID
POINTS 30 float
1 8 10
0 10 0
10 10 0
10 0 0
1 8 0
0 10 10
10 10 10
10 0 10
8 0 0
8 10 0
8 10 10
8 0 10
0 1 0
0 1 10
8 1 10
8 1 0
10 1 10
10 1 0
1 1 0
1 1 10
1 10 10
1 10 0
1 0 0
1 0 10
8 8 10
8 8 0
0 8 0
0 8 10
10 8 10
10 8 0

CELLS 38 190
4 26 27 5 1 
4 12 13 27 26 
4 21 20 10 9 
4 24 0 20 10 
4 1 5 20 21 
4 4 0 24 25 
4 9 10 6 2 
4 18 19 14 15 
4 25 4 21 9 
4 8 11 7 3 
4 12 13 19 18 
4 8 11 14 15 
4 15 18 4 25 
4 24 25 9 10 
4 14 15 25 24 
4 7 11 14 16 
4 3 7 16 17 
4 3 8 15 17 
4 15 14 16 17 
4 14 19 0 24 
4 22 23 11 8 
4 4 0 20 21 
4 23 19 14 11 
4 18 19 0 4 
4 22 18 15 8 
4 22 23 19 18 
4 13 19 0 27 
4 27 0 20 5 
4 12 18 4 26 
4 26 4 21 1 
4 26 27 0 4 
4 14 16 28 24 
4 24 28 6 10 
4 16 17 29 28 
4 28 29 2 6 
4 15 17 29 25 
4 25 29 2 9 
4 25 24 28 29 

CELL_TYPES 38
9 
9 
9 
9 
9 
9 
9 
9 
9 
9 
9 
9 
9 
9 
9 
9 
9 
9 
9 
9 
9 
9 
9 
9 
9 
9 
9 
9 
9 
9 
9 
9 
9 
9 
9 
9 
9 
9 
POINT_DATA 30
SCALARS GMDS_ID int 1
LOOKUP_TABLE default
0 1 2 3 4 5 6 7 8 9 10 11 12 13 14 15 16 17 18 19 20 21 22 23 24 25 26 27 28 29 
SCALARS geom_link_dim_0 int 1
LOOKUP_TABLE default
0 0 0 0 0 0 0 0 0 0 0 0 0 0 0 0 0 0 0 0 0 0 0 0 0 0 0 0 0 0 
SCALARS geom_link_id_0 int 1
LOOKUP_TABLE default
0 0 0 0 0 0 0 0 0 0 0 0 0 0 0 0 0 0 0 0 0 0 0 0 0 0 0 0 0 0 


CELL_DATA 38
SCALARS GMDS_ID int 1
LOOKUP_TABLE default
0 2 3 5 6 8 9 11 12 13 14 15 17 18 19 20 22 24 26 29 30 31 32 33 34 35 36 37 38 39 40 41 42 43 44 45 46 47 

SCALARS geom_link_dim_0 int 1
LOOKUP_TABLE default
0 0 0 0 0 0 0 0 0 0 0 0 0 0 0 0 0 0 0 0 0 0 0 0 0 0 0 0 0 0 0 0 0 0 0 0 0 0 

SCALARS geom_link_id_0 int 1
LOOKUP_TABLE default
0 0 0 0 0 0 0 0 0 0 0 0 0 0 0 0 0 0 0 0 0 0 0 0 0 0 0 0 0 0 0 0 0 0 0 0 0 0 

