# vtk DataFile Version 3.0
Generated by GMDS VTK Writer

ASCII
DATASET UNSTRUCTURED_GRID
POINTS 12 float
0 0 0
0 10 0
10 10 0
10 0 0
0 0 10
0 10 10
10 10 10
10 0 10
0 8 0
10 8 0
10 8 10
0 8 10

CELLS 11 55
4 1 2 6 5 
4 0 4 7 3 
4 1 2 9 8 
4 8 9 3 0 
4 2 6 10 9 
4 9 10 7 3 
4 5 6 10 11 
4 11 10 7 4 
4 1 5 11 8 
4 8 11 4 0 
4 8 9 10 11 

CELL_TYPES 11
9 
9 
9 
9 
9 
9 
9 
9 
9 
9 
9 
POINT_DATA 12
SCALARS GMDS_ID int 1
LOOKUP_TABLE default
0 1 2 3 4 5 6 7 8 9 10 11 
SCALARS geom_link_dim int 1
LOOKUP_TABLE default
0 1 0 1 0 1 0 1 2 1 1 2 
SCALARS geom_link_id int 1
LOOKUP_TABLE default
-1 14 -1 16 -1 13 -1 15 9 12 11 6 


CELL_DATA 11
SCALARS GMDS_ID int 1
LOOKUP_TABLE default
2 4 6 7 8 9 10 11 12 13 14 

SCALARS geom_link_dim int 1
LOOKUP_TABLE default
0 0 0 0 0 0 0 0 0 0 0 

SCALARS geom_link_id int 1
LOOKUP_TABLE default
0 0 -1 -1 -1 -1 -1 -1 -1 -1 -1 

