# vtk DataFile Version 3.0
Generated by GMDS VTK Writer

ASCII
DATASET UNSTRUCTURED_GRID
POINTS 24 float
0 0 0
0 10 0
10 10 0
10 0 0
0 0 10
0 10 10
10 10 10
10 0 10
0 8 0
10 8 0
10 8 10
0 8 10
0 1 0
10 1 0
10 1 10
0 1 10
1 1 0
1 1 10
1 0 10
1 0 0
1 8 0
1 8 10
1 10 0
1 10 10

CELLS 29 145
4 13 14 7 3 
4 9 10 14 13 
4 18 17 15 4 
4 2 6 10 9 
4 7 14 17 18 
4 16 17 15 12 
4 1 5 11 8 
4 13 14 17 16 
4 8 11 15 12 
4 12 15 4 0 
4 3 7 18 19 
4 19 18 4 0 
4 3 13 16 19 
4 19 16 12 0 
4 16 17 18 19 
4 9 10 21 20 
4 20 21 11 8 
4 10 14 17 21 
4 21 17 15 11 
4 9 13 16 20 
4 20 16 12 8 
4 20 21 17 16 
4 2 6 23 22 
4 22 23 5 1 
4 6 10 21 23 
4 23 21 11 5 
4 2 9 20 22 
4 22 20 8 1 
4 22 23 21 20 

CELL_TYPES 29
9 
9 
9 
9 
9 
9 
9 
9 
9 
9 
9 
9 
9 
9 
9 
9 
9 
9 
9 
9 
9 
9 
9 
9 
9 
9 
9 
9 
9 
POINT_DATA 24
SCALARS GMDS_ID int 1
LOOKUP_TABLE default
0 1 2 3 4 5 6 7 8 9 10 11 12 13 14 15 16 17 18 19 20 21 22 23 
SCALARS geom_link_dim int 1
LOOKUP_TABLE default
0 1 0 1 0 1 0 1 2 1 1 2 1 2 2 1 1 1 1 1 3 3 2 2 
SCALARS geom_link_id int 1
LOOKUP_TABLE default
-1 14 -1 16 -1 13 -1 15 9 12 11 6 2 12 7 1 6 5 3 4 2 4 4 3 


CELL_DATA 29
SCALARS GMDS_ID int 1
LOOKUP_TABLE default
0 1 7 8 9 11 12 13 17 18 20 21 22 23 24 25 26 27 28 29 30 31 32 33 34 35 36 37 38 

SCALARS geom_link_dim int 1
LOOKUP_TABLE default
0 0 0 0 0 0 0 0 0 0 0 0 0 0 0 0 0 0 0 0 0 0 0 0 0 0 0 0 0 

SCALARS geom_link_id int 1
LOOKUP_TABLE default
0 0 -1 0 -1 -1 0 -1 0 0 -1 -1 -1 -1 -1 -1 -1 -1 -1 -1 -1 -1 -1 -1 -1 -1 -1 -1 -1 

