# vtk DataFile Version 3.0
Generated by GMDS VTK Writer

ASCII
DATASET UNSTRUCTURED_GRID
POINTS 171 float
-1e-06 -1e-06 -1.00000007817485e-06
10.000001 -1e-06 -1.00000007817485e-06
-1e-06 5.000001 -1.00000007817485e-06
10.000001 5.000001 -1.00000007817485e-06
-1e-06 -1e-06 5.000001
10.000001 -1e-06 5.000001
-1e-06 5.000001 5.000001
10.000001 5.000001 5.000001
9.0000008 -1e-06 5.000001
9.0000008 -1e-06 -1.00000007817485e-06
9.0000008 5.000001 -1.00000007817485e-06
9.0000008 5.000001 5.000001
0.9999992 -1e-06 5.000001
0.9999992 -1e-06 -1.00000007817485e-06
0.9999992 5.000001 -1.00000007817485e-06
0.9999992 5.000001 5.000001
10.000001 -1e-06 4.00000059999998
10.000001 5.000001 4.00000059999998
9.0000008 -1e-06 4.00000059999998
9.0000008 5.000001 4.00000059999998
0.9999992 -1e-06 4.00000059999998
0.9999992 5.000001 4.00000059999998
-1e-06 5.000001 4.00000059999998
-1e-06 -1e-06 4.00000059999998
7.5 0 -7.819418281113e-14
7.5 5 -7.819418281113e-14
2.5 0 -7.79452329986e-14
2.5 5 -7.79452329986e-14
7.0000004 -1e-06 3.00000019999997
7.0000004 5.000001 3.00000019999997
2.9999996 -1e-06 3.00000019999997
2.9999996 5.000001 3.00000019999997
5 -1e-06 5.000001
5 5.000001 5.000001
5 -1e-06 4.00000059999998
5 5.000001 4.00000059999998
5 5.000001 3.00000019999997
5 -1e-06 3.00000019999997
-1e-06 2.5 -1.00000007817485e-06
10.000001 2.5 -1.00000007817485e-06
-1e-06 2.5 5.000001
10.000001 2.5 5.000001
9.5000009 -1e-06 5.000001
9.5000009 -1e-06 -1.00000007817485e-06
9.5000009 5.000001 -1.00000007817485e-06
9.5000009 5.000001 5.000001
9.0000008 2.5 -1.00000007817485e-06
9.0000008 2.5 5.000001
0.4999991 -1e-06 5.000001
0.4999991 -1e-06 -1.00000007817485e-06
0.4999991 5.000001 -1.00000007817485e-06
0.4999991 5.000001 5.000001
0.9999992 2.5 -1.00000007817485e-06
0.9999992 2.5 5.000001
10.000001 -1e-06 1.99999979999995
10.000001 -1e-06 4.50000079999999
10.000001 5.000001 1.99999979999995
10.000001 5.000001 4.50000079999999
10.000001 2.5 4.00000059999998
9.0000008 -1e-06 4.50000079999999
9.0000008 -1e-06 1.99999979999995
9.5000009 -1e-06 4.00000059999998
9.0000008 5.000001 1.99999979999995
9.0000008 5.000001 4.50000079999999
9.5000009 5.000001 4.00000059999998
9.0000008 2.5 4.00000059999998
0.9999992 -1e-06 4.50000079999999
0.9999992 -1e-06 1.99999979999995
0.9999992 5.000001 1.99999979999995
0.9999992 5.000001 4.50000079999999
0.9999992 2.5 4.00000059999998
-1e-06 5.000001 1.99999979999995
-1e-06 5.000001 4.50000079999999
-1e-06 -1e-06 1.99999979999995
-1e-06 -1e-06 4.50000079999999
-1e-06 2.5 4.00000059999998
0.4999991 -1e-06 4.00000059999998
0.4999991 5.000001 4.00000059999998
8.2500004 -5e-07 -5.00000078184519e-07
8.2500004 5.0000005 -5.00000078184519e-07
1.7499996 -5e-07 -5.00000078060044e-07
1.7499996 5.0000005 -5.00000078060044e-07
8.0000006 -1e-06 3.50000039999998
8.0000006 5.000001 3.50000039999998
1.9999994 -1e-06 3.50000039999998
1.9999994 5.000001 3.50000039999998
7.2500002 -5e-07 1.50000009999994
7.5 2.5 -7.819418281113e-14
7.2500002 5.0000005 1.50000009999995
7.0000004 2.5 3.00000019999997
2.9999996 2.5 3.00000019999997
2.7499998 -5e-07 1.50000009999995
2.5 2.5 -7.79452329986e-14
2.7499998 5.0000005 1.50000009999995
2.9999996 -1e-06 5.000001
7.0000004 -1e-06 5.000001
2.9999996 5.000001 5.000001
7.0000004 5.000001 5.000001
5 2.5 5.000001
2.9999996 -1e-06 4.00000059999998
7.0000004 -1e-06 4.00000059999998
5 -1e-06 4.50000079999999
7.0000004 5.000001 4.00000059999998
2.9999996 5.000001 4.00000059999998
5 5.000001 4.50000079999999
5 2.5 4.00000059999998
6.0000002 5.000001 3.00000019999997
3.9999998 5.000001 3.00000019999997
5 5.000001 3.50000039999998
6.0000002 -1e-06 3.00000019999997
3.9999998 -1e-06 3.00000019999997
5 -1e-06 3.50000039999998
5 2.5 3.00000019999997
9.5000009 2.5 -1.00000007817485e-06
9.5000009 2.5 5.000001
0.4999991 2.5 -1.00000007817485e-06
0.4999991 2.5 5.000001
10.000001 2.5 1.99999979999995
10.000001 2.5 4.50000079999999
9.5000009 -1e-06 4.50000079999999
9.5000009 -1e-06 1.99999979999995
9.5000009 5.000001 1.99999979999995
9.5000009 5.000001 4.50000079999999
9.0000008 2.5 1.99999979999995
9.0000008 2.5 4.50000079999999
9.5000009 2.5 4.00000059999998
0.9999992 2.5 4.50000079999999
0.9999992 2.5 1.99999979999995
-1e-06 2.5 1.99999979999995
-1e-06 2.5 4.50000079999999
0.4999991 -1e-06 4.50000079999999
0.4999991 -1e-06 1.99999979999995
0.4999991 5.000001 1.99999979999995
0.4999991 5.000001 4.50000079999999
0.4999991 2.5 4.00000059999998
8.1250005 -7.5e-07 1.74999994999995
8.2500004 2.5 -5.00000078184519e-07
8.1250005 5.00000075 1.74999994999995
8.0000006 2.5 3.50000039999998
1.9999994 2.5 3.50000039999998
1.8749995 -7.5e-07 1.74999994999995
1.7499996 2.5 -5.00000078060044e-07
1.8749995 5.00000075 1.74999994999995
7.2500002 2.5 1.50000009999995
2.7499998 2.5 1.50000009999995
2.9999996 2.5 5.000001
7.0000004 2.5 5.000001
2.9999996 -1e-06 4.50000079999999
7.0000004 -1e-06 4.50000079999999
7.0000004 5.000001 4.50000079999999
2.9999996 5.000001 4.50000079999999
2.9999996 2.5 4.00000059999998
7.0000004 2.5 4.00000059999998
5 2.5 4.50000079999999
6.5000003 5.000001 3.50000039999998
3.4999997 5.000001 3.50000039999998
6.5000003 -1e-06 3.50000039999998
3.4999997 -1e-06 3.50000039999998
3.9999998 2.5 3.00000019999997
6.0000002 2.5 3.00000019999997
5 2.5 3.50000039999998
9.5000009 2.5 4.50000079999999
9.5000009 2.5 1.99999979999995
0.4999991 2.5 4.50000079999999
0.4999991 2.5 1.99999979999995
8.1250005 2.5 1.74999994999995
1.8749995 2.5 1.74999994999995
7.0000004 2.5 4.50000079999999
2.9999996 2.5 4.50000079999999
6.5000003 2.5 3.50000039999998
3.4999997 2.5 3.50000039999998

CELLS 272 1680
4 9 43 113 46 
4 46 113 44 10 
4 43 1 39 113 
4 113 39 3 44 
4 11 45 114 47 
4 47 114 42 8 
4 45 7 41 114 
4 114 41 5 42 
4 0 49 115 38 
4 38 115 50 2 
4 49 13 52 115 
4 115 52 14 50 
4 6 51 116 40 
4 40 116 48 4 
4 51 15 53 116 
4 116 53 12 48 
4 1 54 117 39 
4 39 117 56 3 
4 54 16 58 117 
4 117 58 17 56 
4 16 55 118 58 
4 58 118 57 17 
4 55 5 41 118 
4 118 41 7 57 
4 8 59 119 42 
4 42 119 55 5 
4 59 18 61 119 
4 119 61 16 55 
4 18 60 120 61 
4 61 120 54 16 
4 60 9 43 120 
4 120 43 1 54 
4 3 56 121 44 
4 44 121 62 10 
4 56 17 64 121 
4 121 64 19 62 
4 17 57 122 64 
4 64 122 63 19 
4 57 7 45 122 
4 122 45 11 63 
4 10 62 123 46 
4 46 123 60 9 
4 62 19 65 123 
4 123 65 18 60 
4 19 63 124 65 
4 65 124 59 18 
4 63 11 47 124 
4 124 47 8 59 
4 18 65 125 61 
4 61 125 58 16 
4 65 19 64 125 
4 125 64 17 58 
4 15 69 126 53 
4 53 126 66 12 
4 69 21 70 126 
4 126 70 20 66 
4 21 68 127 70 
4 70 127 67 20 
4 68 14 52 127 
4 127 52 13 67 
4 2 71 128 38 
4 38 128 73 0 
4 71 22 75 128 
4 128 75 23 73 
4 22 72 129 75 
4 75 129 74 23 
4 72 6 40 129 
4 129 40 4 74 
4 4 74 130 48 
4 48 130 66 12 
4 74 23 76 130 
4 130 76 20 66 
4 23 73 131 76 
4 76 131 67 20 
4 73 0 49 131 
4 131 49 13 67 
4 14 68 132 50 
4 50 132 71 2 
4 68 21 77 132 
4 132 77 22 71 
4 21 69 133 77 
4 77 133 72 22 
4 69 15 51 133 
4 133 51 6 72 
4 22 75 134 77 
4 77 134 70 21 
4 75 23 76 134 
4 134 76 20 70 
4 24 86 135 78 
4 78 135 60 9 
4 86 28 82 135 
4 135 82 18 60 
4 24 87 136 78 
4 78 136 46 9 
4 87 25 79 136 
4 136 79 10 46 
4 25 88 137 79 
4 79 137 62 10 
4 88 29 83 137 
4 137 83 19 62 
4 28 89 138 82 
4 82 138 65 18 
4 89 29 83 138 
4 138 83 19 65 
4 30 90 139 84 
4 84 139 70 20 
4 90 31 85 139 
4 139 85 21 70 
4 26 91 140 80 
4 80 140 67 13 
4 91 30 84 140 
4 140 84 20 67 
4 26 92 141 80 
4 80 141 52 13 
4 92 27 81 141 
4 141 81 14 52 
4 27 93 142 81 
4 81 142 68 14 
4 93 31 85 142 
4 142 85 21 68 
4 25 88 143 87 
4 87 143 86 24 
4 88 29 89 143 
4 143 89 28 86 
4 31 93 144 90 
4 90 144 91 30 
4 93 27 92 144 
4 144 92 26 91 
4 12 94 145 53 
4 53 145 96 15 
4 94 32 98 145 
4 145 98 33 96 
4 32 95 146 98 
4 98 146 97 33 
4 95 8 47 146 
4 146 47 11 97 
4 20 99 147 66 
4 66 147 94 12 
4 99 34 101 147 
4 147 101 32 94 
4 34 100 148 101 
4 101 148 95 32 
4 100 18 59 148 
4 148 59 8 95 
4 11 97 149 63 
4 63 149 102 19 
4 97 33 104 149 
4 149 104 35 102 
4 33 96 150 104 
4 104 150 103 35 
4 96 15 69 150 
4 150 69 21 103 
4 21 103 151 70 
4 70 151 99 20 
4 103 35 105 151 
4 151 105 34 99 
4 35 102 152 105 
4 105 152 100 34 
4 102 19 65 152 
4 152 65 18 100 
4 33 98 153 104 
4 104 153 105 35 
4 98 32 101 153 
4 153 101 34 105 
4 19 102 154 83 
4 83 154 106 29 
4 102 35 108 154 
4 154 108 36 106 
4 35 103 155 108 
4 108 155 107 36 
4 103 21 85 155 
4 155 85 31 107 
4 28 109 156 82 
4 82 156 100 18 
4 109 37 111 156 
4 156 111 34 100 
4 37 110 157 111 
4 111 157 99 34 
4 110 30 84 157 
4 157 84 20 99 
4 31 107 158 90 
4 90 158 110 30 
4 107 36 112 158 
4 158 112 37 110 
4 36 106 159 112 
4 112 159 109 37 
4 106 29 89 159 
4 159 89 28 109 
4 35 108 160 105 
4 105 160 111 34 
4 108 36 112 160 
4 160 112 37 111 
8 5 42 114 41 55 119 161 118 
8 42 8 47 114 119 59 124 161 
8 41 114 45 7 118 161 122 57 
8 114 47 11 45 161 124 63 122 
8 55 119 161 118 16 61 125 58 
8 119 59 124 161 61 18 65 125 
8 118 161 122 57 58 125 64 17 
8 161 124 63 122 125 65 19 64 
8 16 61 125 58 54 120 162 117 
8 61 18 65 125 120 60 123 162 
8 58 125 64 17 117 162 121 56 
8 125 65 19 64 162 123 62 121 
8 54 120 162 117 1 43 113 39 
8 120 60 123 162 43 9 46 113 
8 117 162 121 56 39 113 44 3 
8 162 123 62 121 113 46 10 44 
8 69 133 163 126 15 51 116 53 
8 133 72 129 163 51 6 40 116 
8 126 163 130 66 53 116 48 12 
8 163 129 74 130 116 40 4 48 
8 21 77 134 70 69 133 163 126 
8 77 22 75 134 133 72 129 163 
8 70 134 76 20 126 163 130 66 
8 134 75 23 76 163 129 74 130 
8 68 132 164 127 21 77 134 70 
8 132 71 128 164 77 22 75 134 
8 127 164 131 67 70 134 76 20 
8 164 128 73 131 134 75 23 76 
8 14 50 115 52 68 132 164 127 
8 50 2 38 115 132 71 128 164 
8 52 115 49 13 127 164 131 67 
8 115 38 0 49 164 128 73 131 
8 60 135 165 123 9 78 136 46 
8 135 86 143 165 78 24 87 136 
8 123 165 137 62 46 136 79 10 
8 165 143 88 137 136 87 25 79 
8 18 82 138 65 60 135 165 123 
8 82 28 89 138 135 86 143 165 
8 65 138 83 19 123 165 137 62 
8 138 89 29 83 165 143 88 137 
8 67 140 166 127 20 84 139 70 
8 140 91 144 166 84 30 90 139 
8 127 166 142 68 70 139 85 21 
8 166 144 93 142 139 90 31 85 
8 13 80 141 52 67 140 166 127 
8 80 26 92 141 140 91 144 166 
8 52 141 81 14 127 166 142 68 
8 141 92 27 81 166 144 93 142 
8 102 149 167 152 19 63 124 65 
8 149 97 146 167 63 11 47 124 
8 152 167 148 100 65 124 59 18 
8 167 146 95 148 124 47 8 59 
8 35 104 153 105 102 149 167 152 
8 104 33 98 153 149 97 146 167 
8 105 153 101 34 152 167 148 100 
8 153 98 32 101 167 146 95 148 
8 103 150 168 151 35 104 153 105 
8 150 96 145 168 104 33 98 153 
8 151 168 147 99 105 153 101 34 
8 168 145 94 147 153 98 32 101 
8 21 69 126 70 103 150 168 151 
8 69 15 53 126 150 96 145 168 
8 70 126 66 20 151 168 147 99 
8 126 53 12 66 168 145 94 147 
8 18 65 138 82 100 152 169 156 
8 65 19 83 138 152 102 154 169 
8 82 138 89 28 156 169 159 109 
8 138 83 29 89 169 154 106 159 
8 100 152 169 156 34 105 160 111 
8 152 102 154 169 105 35 108 160 
8 156 169 159 109 111 160 112 37 
8 169 154 106 159 160 108 36 112 
8 34 105 160 111 99 151 170 157 
8 105 35 108 160 151 103 155 170 
8 111 160 112 37 157 170 158 110 
8 160 108 36 112 170 155 107 158 
8 99 151 170 157 20 70 139 84 
8 151 103 155 170 70 21 85 139 
8 157 170 158 110 84 139 90 30 
8 170 155 107 158 139 85 31 90 

CELL_TYPES 272
9 
9 
9 
9 
9 
9 
9 
9 
9 
9 
9 
9 
9 
9 
9 
9 
9 
9 
9 
9 
9 
9 
9 
9 
9 
9 
9 
9 
9 
9 
9 
9 
9 
9 
9 
9 
9 
9 
9 
9 
9 
9 
9 
9 
9 
9 
9 
9 
9 
9 
9 
9 
9 
9 
9 
9 
9 
9 
9 
9 
9 
9 
9 
9 
9 
9 
9 
9 
9 
9 
9 
9 
9 
9 
9 
9 
9 
9 
9 
9 
9 
9 
9 
9 
9 
9 
9 
9 
9 
9 
9 
9 
9 
9 
9 
9 
9 
9 
9 
9 
9 
9 
9 
9 
9 
9 
9 
9 
9 
9 
9 
9 
9 
9 
9 
9 
9 
9 
9 
9 
9 
9 
9 
9 
9 
9 
9 
9 
9 
9 
9 
9 
9 
9 
9 
9 
9 
9 
9 
9 
9 
9 
9 
9 
9 
9 
9 
9 
9 
9 
9 
9 
9 
9 
9 
9 
9 
9 
9 
9 
9 
9 
9 
9 
9 
9 
9 
9 
9 
9 
9 
9 
9 
9 
9 
9 
9 
9 
9 
9 
9 
9 
9 
9 
9 
9 
9 
9 
9 
9 
9 
9 
12 
12 
12 
12 
12 
12 
12 
12 
12 
12 
12 
12 
12 
12 
12 
12 
12 
12 
12 
12 
12 
12 
12 
12 
12 
12 
12 
12 
12 
12 
12 
12 
12 
12 
12 
12 
12 
12 
12 
12 
12 
12 
12 
12 
12 
12 
12 
12 
12 
12 
12 
12 
12 
12 
12 
12 
12 
12 
12 
12 
12 
12 
12 
12 
12 
12 
12 
12 
12 
12 
12 
12 
12 
12 
12 
12 
12 
12 
12 
12 
POINT_DATA 171
SCALARS GMDS_ID int 1
LOOKUP_TABLE default
0 1 2 3 4 5 6 7 8 9 10 11 12 13 14 15 16 17 18 19 20 21 22 23 24 25 26 27 28 29 30 31 32 33 34 35 36 37 38 39 40 41 42 43 44 45 46 47 48 49 50 51 52 53 54 55 56 57 58 59 60 61 62 63 64 65 66 67 68 69 70 71 72 73 74 75 76 77 78 79 80 81 82 83 84 85 86 87 88 89 90 91 92 93 94 95 96 97 98 99 100 101 102 103 104 105 106 107 108 109 110 111 112 113 114 115 116 117 118 119 120 121 122 123 124 125 126 127 128 129 130 131 132 133 134 135 136 137 138 139 140 141 142 143 144 145 146 147 148 149 150 151 152 153 154 155 156 157 158 159 160 161 162 163 164 165 166 167 168 169 170 


CELL_DATA 272
SCALARS GMDS_ID int 1
LOOKUP_TABLE default
0 1 2 3 4 5 6 7 8 9 10 11 12 13 14 15 16 17 18 19 20 21 22 23 24 25 26 27 28 29 30 31 32 33 34 35 36 37 38 39 40 41 42 43 44 45 46 47 48 49 50 51 52 53 54 55 56 57 58 59 60 61 62 63 64 65 66 67 68 69 70 71 72 73 74 75 76 77 78 79 80 81 82 83 84 85 86 87 88 89 90 91 92 93 94 95 96 97 98 99 100 101 102 103 104 105 106 107 108 109 110 111 112 113 114 115 116 117 118 119 120 121 122 123 124 125 126 127 128 129 130 131 132 133 134 135 136 137 138 139 140 141 142 143 144 145 146 147 148 149 150 151 152 153 154 155 156 157 158 159 160 161 162 163 164 165 166 167 168 169 170 171 172 173 174 175 176 177 178 179 180 181 182 183 184 185 186 187 188 189 190 191 0 1 2 3 4 5 6 7 8 9 10 11 12 13 14 15 16 17 18 19 20 21 22 23 24 25 26 27 28 29 30 31 32 33 34 35 36 37 38 39 40 41 42 43 44 45 46 47 48 49 50 51 52 53 54 55 56 57 58 59 60 61 62 63 64 65 66 67 68 69 70 71 72 73 74 75 76 77 78 79 

