# vtk DataFile Version 3.0
Generated by GMDS VTK Writer

ASCII
DATASET UNSTRUCTURED_GRID
POINTS 38 float
-1e-06 -1e-06 -1.00000007817485e-06
10.000001 -1e-06 -1.00000007817485e-06
-1e-06 5.000001 -1.00000007817485e-06
10.000001 5.000001 -1.00000007817485e-06
-1e-06 -1e-06 5.000001
10.000001 -1e-06 5.000001
-1e-06 5.000001 5.000001
10.000001 5.000001 5.000001
9.0000008 -1e-06 5.000001
9.0000008 -1e-06 -1.00000007817485e-06
9.0000008 5.000001 -1.00000007817485e-06
9.0000008 5.000001 5.000001
0.9999992 -1e-06 5.000001
0.9999992 -1e-06 -1.00000007817485e-06
0.9999992 5.000001 -1.00000007817485e-06
0.9999992 5.000001 5.000001
10.000001 -1e-06 4.00000059999998
10.000001 5.000001 4.00000059999998
9.0000008 -1e-06 4.00000059999998
9.0000008 5.000001 4.00000059999998
0.9999992 -1e-06 4.00000059999998
0.9999992 5.000001 4.00000059999998
-1e-06 5.000001 4.00000059999998
-1e-06 -1e-06 4.00000059999998
7.5 0 -7.819418281113e-14
7.5 5 -7.819418281113e-14
2.5 0 -7.79452329986e-14
2.5 5 -7.79452329986e-14
7.0000004 -1e-06 3.00000019999997
7.0000004 5.000001 3.00000019999997
2.9999996 -1e-06 3.00000019999997
2.9999996 5.000001 3.00000019999997
5 -1e-06 5.000001
5 5.000001 5.000001
5 -1e-06 4.00000059999998
5 5.000001 4.00000059999998
5 5.000001 3.00000019999997
5 -1e-06 3.00000019999997

CELLS 58 330
4 9 1 3 10 
4 11 7 5 8 
4 0 13 14 2 
4 6 15 12 4 
4 1 16 17 3 
4 16 5 7 17 
4 8 18 16 5 
4 18 9 1 16 
4 3 17 19 10 
4 17 7 11 19 
4 10 19 18 9 
4 19 11 8 18 
4 18 19 17 16 
4 15 21 20 12 
4 21 14 13 20 
4 2 22 23 0 
4 22 6 4 23 
4 4 23 20 12 
4 23 0 13 20 
4 14 21 22 2 
4 21 15 6 22 
4 22 23 20 21 
4 24 28 18 9 
4 24 25 10 9 
4 25 29 19 10 
4 28 29 19 18 
4 30 31 21 20 
4 26 30 20 13 
4 26 27 14 13 
4 27 31 21 14 
4 25 29 28 24 
4 31 27 26 30 
4 12 32 33 15 
4 32 8 11 33 
4 20 34 32 12 
4 34 18 8 32 
4 11 33 35 19 
4 33 15 21 35 
4 21 35 34 20 
4 35 19 18 34 
4 33 32 34 35 
4 19 35 36 29 
4 35 21 31 36 
4 28 37 34 18 
4 37 30 20 34 
4 31 36 37 30 
4 36 29 28 37 
4 35 36 37 34 
8 5 8 11 7 16 18 19 17 
8 16 18 19 17 1 9 10 3 
8 21 22 23 20 15 6 4 12 
8 14 2 0 13 21 22 23 20 
8 18 28 29 19 9 24 25 10 
8 13 26 27 14 20 30 31 21 
8 35 33 32 34 19 11 8 18 
8 21 15 12 20 35 33 32 34 
8 18 19 29 28 34 35 36 37 
8 34 35 36 37 20 21 31 30 

CELL_TYPES 58
9 
9 
9 
9 
9 
9 
9 
9 
9 
9 
9 
9 
9 
9 
9 
9 
9 
9 
9 
9 
9 
9 
9 
9 
9 
9 
9 
9 
9 
9 
9 
9 
9 
9 
9 
9 
9 
9 
9 
9 
9 
9 
9 
9 
9 
9 
9 
9 
12 
12 
12 
12 
12 
12 
12 
12 
12 
12 
POINT_DATA 38
SCALARS GMDS_ID int 1
LOOKUP_TABLE default
0 1 2 3 4 5 6 7 8 9 10 11 12 13 14 15 16 17 18 19 20 21 22 23 24 25 26 27 28 29 30 31 32 33 34 35 36 37 


CELL_DATA 58
SCALARS GMDS_ID int 1
LOOKUP_TABLE default
0 1 2 3 4 5 6 7 8 9 10 11 12 13 14 15 16 17 18 19 20 21 22 23 24 25 26 27 28 29 30 31 32 33 34 35 36 37 38 39 40 41 42 43 44 45 46 47 0 1 2 3 4 5 6 7 8 9 

