# vtk DataFile Version 3.0
Generated by GMDS VTK Writer

ASCII
DATASET UNSTRUCTURED_GRID
POINTS 171 float
0 0 0
10 0 0
0 5 0
10 5 0
0 0 5
10 0 5
0 5 5
10 5 5
9 0 5
9 0 0
9 5 0
9 5 5
1 0 5
1 0 0
1 5 0
1 5 5
10 0 4
10 5 4
9 0 4
9 5 4
1 0 4
1 5 4
0 5 4
0 0 4
7.5 0 -7.819418281113e-14
7.5 5 -7.819418281113e-14
2.5 0 -7.79452329986e-14
2.5 5 -7.79452329986e-14
6.38675049056307 0 2.08012573584461
6.38675049056307 5 2.08012573584461
3.61324950943693 0 2.08012573584461
3.61324950943693 5 2.08012573584461
5 0 5
5 5 5
5 0 4
5 5 4
5 5 2.5
5 0 2.5
0 2.5 0
10 2.5 0
0 2.5 5
10 2.5 5
9.5 0 5
9.5 0 0
9.5 5 0
9.5 5 5
9 2.5 0
9 2.5 5
0.5 0 5
0.5 0 0
0.5 5 0
0.5 5 5
1 2.5 0
1 2.5 5
10 0 2
10 0 4.5
10 5 2
10 5 4.5
10 2.5 4
9 0 4.5
9 0 2
9.5 0 4
9 5 2
9 5 4.5
9.5 5 4
9 2.5 4
1 0 4.5
1 0 2
1 5 2
1 5 4.5
1 2.5 4
0 5 2
0 5 4.5
0 0 2
0 0 4.5
0 2.5 4
0.5 0 4
0.5 5 4
8.25 0 0
8.25 5 0
1.75 0 0
1.75 5 0
7.69337524528154 0 3.04006286792231
7.69337524528154 5 3.04006286792231
2.30662475471847 0 3.04006286792231
2.30662475471847 5 3.04006286792231
7.20418649691988 0 1.17964481383003
7.5 2.5 0
7.20418649691988 5 1.17964481383003
6.38675049056307 2.5 2.08012573584461
3.61324950943693 2.5 2.08012573584461
2.79581350308012 0 1.17964481383003
2.5 2.5 0
2.79581350308012 5 1.17964481383003
3 0 5
7 0 5
3 5 5
7 5 5
5 2.5 5
3 0 4
7 0 4
5 0 4.5
7 5 4
3 5 4
5 5 4.5
5 2.5 4
5.72446037172107 5 2.39273006622263
4.27553962827893 5 2.39273006622263
5 5 3.25
5.72446037172107 0 2.39273006622263
4.27553962827893 0 2.39273006622263
5 0 3.25
5 2.5 2.5
9.5 2.5 0
9.5 2.5 5
0.5 2.5 0
0.5 2.5 5
10 2.5 2
10 2.5 4.5
9.5 0 4.5
9.5 0 2
9.5 5 2
9.5 5 4.5
9 2.5 2
9 2.5 4.5
9.5 2.5 4
1 2.5 4.5
1 2.5 2
0 2.5 2
0 2.5 4.5
0.5 0 4.5
0.5 0 2
0.5 5 2
0.5 5 4.5
0.5 2.5 4
8.10209324845994 0 1.58982240691503
8.25 2.5 0
8.10209324845994 5 1.58982240691503
7.69337524528153 2.5 3.04006286792231
2.30662475471847 2.5 3.04006286792231
1.89790675154006 0 1.58982240691503
1.75 2.5 0
1.89790675154006 5 1.58982240691503
7.20418649691986 2.5 1.17964481383006
2.79581350308014 2.5 1.17964481383006
3 2.5 5
7 2.5 5
3 0 4.5
7 0 4.5
7 5 4.5
3 5 4.5
3 2.5 4
7 2.5 4
5 2.5 4.5
6.36223018586054 5 3.19636503311132
3.63776981413946 5 3.19636503311132
6.36223018586054 0 3.19636503311132
3.63776981413946 0 3.19636503311132
4.27553962827893 2.5 2.39273006622263
5.72446037172108 2.5 2.39273006622263
5 2.5 3.25
9.5 2.5 4.5
9.5 2.5 2
0.5 2.5 4.5
0.5 2.5 2
8.10209324845993 2.5 1.58982240691503
1.89790675154007 2.5 1.58982240691503
7 2.5 4.5
3 2.5 4.5
6.36223018586054 2.5 3.19636503311132
3.63776981413947 2.5 3.19636503311132

CELLS 80 720
8 5 42 114 41 55 119 161 118 
8 42 8 47 114 119 59 124 161 
8 41 114 45 7 118 161 122 57 
8 114 47 11 45 161 124 63 122 
8 55 119 161 118 16 61 125 58 
8 119 59 124 161 61 18 65 125 
8 118 161 122 57 58 125 64 17 
8 161 124 63 122 125 65 19 64 
8 16 61 125 58 54 120 162 117 
8 61 18 65 125 120 60 123 162 
8 58 125 64 17 117 162 121 56 
8 125 65 19 64 162 123 62 121 
8 54 120 162 117 1 43 113 39 
8 120 60 123 162 43 9 46 113 
8 117 162 121 56 39 113 44 3 
8 162 123 62 121 113 46 10 44 
8 69 133 163 126 15 51 116 53 
8 133 72 129 163 51 6 40 116 
8 126 163 130 66 53 116 48 12 
8 163 129 74 130 116 40 4 48 
8 21 77 134 70 69 133 163 126 
8 77 22 75 134 133 72 129 163 
8 70 134 76 20 126 163 130 66 
8 134 75 23 76 163 129 74 130 
8 68 132 164 127 21 77 134 70 
8 132 71 128 164 77 22 75 134 
8 127 164 131 67 70 134 76 20 
8 164 128 73 131 134 75 23 76 
8 14 50 115 52 68 132 164 127 
8 50 2 38 115 132 71 128 164 
8 52 115 49 13 127 164 131 67 
8 115 38 0 49 164 128 73 131 
8 60 135 165 123 9 78 136 46 
8 135 86 143 165 78 24 87 136 
8 123 165 137 62 46 136 79 10 
8 165 143 88 137 136 87 25 79 
8 18 82 138 65 60 135 165 123 
8 82 28 89 138 135 86 143 165 
8 65 138 83 19 123 165 137 62 
8 138 89 29 83 165 143 88 137 
8 67 140 166 127 20 84 139 70 
8 140 91 144 166 84 30 90 139 
8 127 166 142 68 70 139 85 21 
8 166 144 93 142 139 90 31 85 
8 13 80 141 52 67 140 166 127 
8 80 26 92 141 140 91 144 166 
8 52 141 81 14 127 166 142 68 
8 141 92 27 81 166 144 93 142 
8 102 149 167 152 19 63 124 65 
8 149 97 146 167 63 11 47 124 
8 152 167 148 100 65 124 59 18 
8 167 146 95 148 124 47 8 59 
8 35 104 153 105 102 149 167 152 
8 104 33 98 153 149 97 146 167 
8 105 153 101 34 152 167 148 100 
8 153 98 32 101 167 146 95 148 
8 103 150 168 151 35 104 153 105 
8 150 96 145 168 104 33 98 153 
8 151 168 147 99 105 153 101 34 
8 168 145 94 147 153 98 32 101 
8 21 69 126 70 103 150 168 151 
8 69 15 53 126 150 96 145 168 
8 70 126 66 20 151 168 147 99 
8 126 53 12 66 168 145 94 147 
8 18 65 138 82 100 152 169 156 
8 65 19 83 138 152 102 154 169 
8 82 138 89 28 156 169 159 109 
8 138 83 29 89 169 154 106 159 
8 100 152 169 156 34 105 160 111 
8 152 102 154 169 105 35 108 160 
8 156 169 159 109 111 160 112 37 
8 169 154 106 159 160 108 36 112 
8 34 105 160 111 99 151 170 157 
8 105 35 108 160 151 103 155 170 
8 111 160 112 37 157 170 158 110 
8 160 108 36 112 170 155 107 158 
8 99 151 170 157 20 70 139 84 
8 151 103 155 170 70 21 85 139 
8 157 170 158 110 84 139 90 30 
8 170 155 107 158 139 85 31 90 

CELL_TYPES 80
12 
12 
12 
12 
12 
12 
12 
12 
12 
12 
12 
12 
12 
12 
12 
12 
12 
12 
12 
12 
12 
12 
12 
12 
12 
12 
12 
12 
12 
12 
12 
12 
12 
12 
12 
12 
12 
12 
12 
12 
12 
12 
12 
12 
12 
12 
12 
12 
12 
12 
12 
12 
12 
12 
12 
12 
12 
12 
12 
12 
12 
12 
12 
12 
12 
12 
12 
12 
12 
12 
12 
12 
12 
12 
12 
12 
12 
12 
12 
12 
POINT_DATA 171
SCALARS GMDS_ID int 1
LOOKUP_TABLE default
0 1 2 3 4 5 6 7 8 9 10 11 12 13 14 15 16 17 18 19 20 21 22 23 24 25 26 27 28 29 30 31 32 33 34 35 36 37 38 39 40 41 42 43 44 45 46 47 48 49 50 51 52 53 54 55 56 57 58 59 60 61 62 63 64 65 66 67 68 69 70 71 72 73 74 75 76 77 78 79 80 81 82 83 84 85 86 87 88 89 90 91 92 93 94 95 96 97 98 99 100 101 102 103 104 105 106 107 108 109 110 111 112 113 114 115 116 117 118 119 120 121 122 123 124 125 126 127 128 129 130 131 132 133 134 135 136 137 138 139 140 141 142 143 144 145 146 147 148 149 150 151 152 153 154 155 156 157 158 159 160 161 162 163 164 165 166 167 168 169 170 


CELL_DATA 80
SCALARS GMDS_ID int 1
LOOKUP_TABLE default
0 1 2 3 4 5 6 7 8 9 10 11 12 13 14 15 16 17 18 19 20 21 22 23 24 25 26 27 28 29 30 31 32 33 34 35 36 37 38 39 40 41 42 43 44 45 46 47 48 49 50 51 52 53 54 55 56 57 58 59 60 61 62 63 64 65 66 67 68 69 70 71 72 73 74 75 76 77 78 79 

