# vtk DataFile Version 3.0
Generated by GMDS VTK Writer

ASCII
DATASET UNSTRUCTURED_GRID
POINTS 38 float
0 0 0
10 0 0
0 5 0
10 5 0
0 0 5
10 0 5
0 5 5
10 5 5
9 0 5
9 0 0
9 5 0
9 5 5
1 0 5
1 0 0
1 5 0
1 5 5
10 0 4
10 5 4
9 0 4
9 5 4
1 0 4
1 5 4
0 5 4
0 0 4
7.5 0 -7.819418281113e-14
7.5 5 -7.819418281113e-14
2.5 0 -7.79452329986e-14
2.5 5 -7.79452329986e-14
6.38675049056307 0 2.08012573584461
6.38675049056307 5 2.08012573584461
3.61324950943693 0 2.08012573584461
3.61324950943693 5 2.08012573584461
5 0 5
5 5 5
5 0 4
5 5 4
5 5 2.5
5 0 2.5

CELLS 10 90
8 5 8 11 7 16 18 19 17 
8 16 18 19 17 1 9 10 3 
8 21 22 23 20 15 6 4 12 
8 14 2 0 13 21 22 23 20 
8 18 28 29 19 9 24 25 10 
8 13 26 27 14 20 30 31 21 
8 35 33 32 34 19 11 8 18 
8 21 15 12 20 35 33 32 34 
8 18 19 29 28 34 35 36 37 
8 34 35 36 37 20 21 31 30 

CELL_TYPES 10
12 
12 
12 
12 
12 
12 
12 
12 
12 
12 
POINT_DATA 38
SCALARS GMDS_ID int 1
LOOKUP_TABLE default
0 1 2 3 4 5 6 7 8 9 10 11 12 13 14 15 16 17 18 19 20 21 22 23 24 25 26 27 28 29 30 31 32 33 34 35 36 37 


CELL_DATA 10
SCALARS GMDS_ID int 1
LOOKUP_TABLE default
0 1 2 3 4 5 6 7 8 9 

