# vtk DataFile Version 3.0
Generated by GMDS VTK Writer

ASCII
DATASET UNSTRUCTURED_GRID
POINTS 20 float
0 0 0
5 0 5
15 0 0
0 0 5
5 0 0
15 0 5
0 5 0
0 5 5
15 5 5
15 5 0
10 0 0
10 0 5
10 5 5
10 5 0
10 10 5
10 10 0
5 5 5
5 5 0
5 10 5
5 10 0

CELLS 4 36
8 4 1 16 17 10 11 12 13 
8 10 11 12 13 2 5 8 9 
8 0 3 7 6 4 1 16 17 
8 17 16 18 19 13 12 14 15 

CELL_TYPES 4
12 
12 
12 
12 
POINT_DATA 20
SCALARS GMDS_ID int 1
LOOKUP_TABLE default
0 2 3 4 6 7 8 9 10 11 12 13 14 15 16 17 18 19 20 21 
SCALARS geom_link_dim int 1
LOOKUP_TABLE default
1 2 1 1 2 1 1 1 1 1 2 2 1 1 1 1 1 1 1 1 
SCALARS geom_link_id int 1
LOOKUP_TABLE default
9 7 10 8 15 2 11 7 1 16 15 7 3 15 4 14 6 12 5 13 


CELL_DATA 4
SCALARS GMDS_ID int 1
LOOKUP_TABLE default
2 3 5 6 

SCALARS is_in int 1
LOOKUP_TABLE default
1 1 1 1 

SCALARS geom_link_dim int 1
LOOKUP_TABLE default
4 4 4 4 

SCALARS geom_link_id int 1
LOOKUP_TABLE default
1 1 1 1 

