# vtk DataFile Version 3.0
Generated by GMDS VTK Writer

ASCII
DATASET UNSTRUCTURED_GRID
POINTS 22 float
0 0 0
15 10 0
15 0 0
0 0 5
15 10 5
15 0 5
5 0 0
5 10 0
5 10 5
5 0 5
10 0 0
10 10 0
10 10 5
10 0 5
0 5 0
0 5 5
5 5 5
5 5 0
10 5 5
10 5 0
15 5 5
15 5 0

CELLS 5 45
8 0 3 9 6 14 15 16 17 
8 6 9 13 10 17 16 18 19 
8 17 16 18 19 7 8 12 11 
8 10 13 5 2 19 18 20 21 
8 19 18 20 21 11 12 4 1 

CELL_TYPES 5
12 
12 
12 
12 
12 
POINT_DATA 22
SCALARS GMDS_ID int 1
LOOKUP_TABLE default
0 2 3 4 6 7 8 9 10 11 12 13 14 15 16 17 18 19 20 21 22 23 
SCALARS geom_link_dim_0 int 1
LOOKUP_TABLE default
0 0 0 0 0 0 0 0 0 0 0 0 0 0 0 0 0 0 0 0 0 0 
SCALARS geom_link_id_0 int 1
LOOKUP_TABLE default
0 0 0 0 0 0 0 0 0 0 0 0 0 0 0 0 0 0 0 0 0 0 


CELL_DATA 5
SCALARS GMDS_ID int 1
LOOKUP_TABLE default
2 5 6 7 8 

SCALARS geom_link_dim_0 int 1
LOOKUP_TABLE default
0 0 0 0 0 

SCALARS geom_link_id_0 int 1
LOOKUP_TABLE default
0 0 0 0 0 

