# vtk DataFile Version 3.0
Generated by GMDS VTK Writer

ASCII
DATASET UNSTRUCTURED_GRID
POINTS 22 float
0 0 0
15 10 0
15 0 0
0 0 5
15 10 5
15 0 5
0 5 0
0 5 5
15 5 5
15 5 0
5 0 0
5 0 5
5 5 5
5 5 0
5 10 5
5 10 0
10 0 0
10 0 5
10 5 5
10 5 0
10 10 5
10 10 0

CELLS 5 45
8 0 3 7 6 10 11 12 13 
8 16 17 18 19 2 5 8 9 
8 10 11 12 13 16 17 18 19 
8 13 12 14 15 19 18 20 21 
8 19 18 20 21 9 8 4 1 

CELL_TYPES 5
12 
12 
12 
12 
12 
POINT_DATA 22
SCALARS GMDS_ID int 1
LOOKUP_TABLE default
0 2 3 4 6 7 8 9 10 11 12 13 14 15 16 17 18 19 20 21 22 23 
SCALARS geom_link_dim int 1
LOOKUP_TABLE default
1 0 1 1 0 1 1 1 1 1 2 2 1 1 1 1 2 2 1 1 1 1 
SCALARS geom_link_id int 1
LOOKUP_TABLE default
9 -1 10 8 -1 2 11 7 1 16 15 7 6 12 5 13 15 7 3 15 4 14 


CELL_DATA 5
SCALARS GMDS_ID int 1
LOOKUP_TABLE default
0 1 2 4 5 

SCALARS is_in int 1
LOOKUP_TABLE default
0 0 0 0 0 

SCALARS geom_link_dim int 1
LOOKUP_TABLE default
0 0 0 0 0 

SCALARS geom_link_id int 1
LOOKUP_TABLE default
0 0 0 0 0 

