# vtk DataFile Version 3.0
Generated by GMDS VTK Writer

ASCII
DATASET UNSTRUCTURED_GRID
POINTS 22 float
0 0 0
0 10 0
15 0 0
0 0 5
0 10 5
15 0 5
5 0 0
5 10 0
5 10 5
5 0 5
0 5 0
0 5 5
5 5 5
5 5 0
15 5 5
15 5 0
10 0 0
10 0 5
10 5 5
10 5 0
10 10 5
10 10 0

CELLS 5 45
8 0 3 9 6 10 11 12 13 
8 16 17 18 19 6 9 12 13 
8 2 5 14 15 16 17 18 19 
8 10 11 12 13 1 4 8 7 
8 19 18 20 21 13 12 8 7 

CELL_TYPES 5
12 
12 
12 
12 
12 
POINT_DATA 22
SCALARS GMDS_ID int 1
LOOKUP_TABLE default
0 1 3 4 5 7 8 9 10 11 12 13 14 15 16 17 18 19 20 21 22 23 
SCALARS geom_link_dim int 1
LOOKUP_TABLE default
1 0 1 1 0 1 2 1 1 2 1 1 1 1 1 1 2 2 1 1 1 1 
SCALARS geom_link_id int 1
LOOKUP_TABLE default
9 -1 10 8 -1 2 15 13 5 7 11 7 6 12 1 16 15 7 3 15 4 14 


CELL_DATA 5
SCALARS GMDS_ID int 1
LOOKUP_TABLE default
0 1 2 3 7 

SCALARS is_in int 1
LOOKUP_TABLE default
1 1 1 0 1 

SCALARS geom_link_dim int 1
LOOKUP_TABLE default
0 0 0 0 0 

SCALARS geom_link_id int 1
LOOKUP_TABLE default
0 0 0 0 0 

