# vtk DataFile Version 3.0
Generated by GMDS VTK Writer

ASCII
DATASET UNSTRUCTURED_GRID
POINTS 8 float
0 0 0
0 10 0
15 10 0
15 0 0
0 0 5
0 10 5
15 10 5
15 0 5

CELLS 1 9
8 0 1 2 3 4 5 6 7 

CELL_TYPES 1
12 
POINT_DATA 8
SCALARS GMDS_ID int 1
LOOKUP_TABLE default
0 1 2 3 4 5 6 7 
SCALARS geom_link_dim int 1
LOOKUP_TABLE default
1 0 0 1 1 0 0 1 
SCALARS geom_link_id int 1
LOOKUP_TABLE default
9 -1 -1 10 8 -1 -1 2 


CELL_DATA 1
SCALARS GMDS_ID int 1
LOOKUP_TABLE default
0 

SCALARS is_in int 1
LOOKUP_TABLE default
0 

SCALARS geom_link_dim int 1
LOOKUP_TABLE default
0 

SCALARS geom_link_id int 1
LOOKUP_TABLE default
0 

