# vtk DataFile Version 3.0
Generated by GMDS VTK Writer

ASCII
DATASET UNSTRUCTURED_GRID
POINTS 12 float
0 0 0
0 10 0
15 10 0
15 0 0
0 0 5
0 10 5
15 10 5
15 0 5
10 0 0
10 10 0
10 10 5
10 0 5

CELLS 2 18
8 0 1 5 4 8 9 10 11 
8 8 9 10 11 3 2 6 7 

CELL_TYPES 2
12 
12 
POINT_DATA 12
SCALARS GMDS_ID int 1
LOOKUP_TABLE default
0 1 2 3 4 5 6 7 8 9 10 11 
SCALARS geom_link_dim int 1
LOOKUP_TABLE default
1 0 0 1 1 0 0 1 2 1 1 2 
SCALARS geom_link_id int 1
LOOKUP_TABLE default
9 -1 -1 10 8 -1 -1 2 15 14 4 7 


CELL_DATA 2
SCALARS GMDS_ID int 1
LOOKUP_TABLE default
1 2 

SCALARS is_in int 1
LOOKUP_TABLE default
0 0 

SCALARS geom_link_dim int 1
LOOKUP_TABLE default
0 0 

SCALARS geom_link_id int 1
LOOKUP_TABLE default
-1 -1 

