# vtk DataFile Version 3.0
Generated by GMDS VTK Writer

ASCII
DATASET UNSTRUCTURED_GRID
POINTS 16 float
0 0 0
0 10 0
15 10 0
15 0 0
0 0 5
0 10 5
15 10 5
15 0 5
5 0 0
5 10 0
5 10 5
5 0 5
10 0 0
10 10 0
10 10 5
10 0 5

CELLS 3 27
8 8 9 10 11 12 13 14 15 
8 0 1 5 4 8 9 10 11 
8 12 13 14 15 3 2 6 7 

CELL_TYPES 3
12 
12 
12 
POINT_DATA 16
SCALARS GMDS_ID int 1
LOOKUP_TABLE default
0 1 2 3 4 5 6 7 8 9 10 11 12 13 14 15 
SCALARS geom_link_dim_0 int 1
LOOKUP_TABLE default
0 0 0 0 0 0 0 0 0 0 0 0 0 0 0 0 
SCALARS geom_link_id_0 int 1
LOOKUP_TABLE default
0 0 0 0 0 0 0 0 0 0 0 0 0 0 0 0 


CELL_DATA 3
SCALARS GMDS_ID int 1
LOOKUP_TABLE default
0 1 3 

SCALARS geom_link_dim_0 int 1
LOOKUP_TABLE default
0 0 0 

SCALARS geom_link_id_0 int 1
LOOKUP_TABLE default
0 0 0 

