# vtk DataFile Version 3.0
Generated by GMDS VTK Writer

ASCII
DATASET UNSTRUCTURED_GRID
POINTS 20 float
0 0 0
15 0 0
0 0 5
15 0 5
0 5 0
0 5 5
15 5 5
15 5 0
10 0 0
10 0 5
10 5 5
10 5 0
10 10 5
10 10 0
5 0 0
5 0 5
5 5 5
5 5 0
5 10 5
5 10 0

CELLS 4 36
8 14 15 16 17 8 9 10 11 
8 0 2 5 4 14 15 16 17 
8 8 9 10 11 1 3 6 7 
8 17 16 18 19 11 10 12 13 

CELL_TYPES 4
12 
12 
12 
12 
POINT_DATA 20
SCALARS GMDS_ID int 1
LOOKUP_TABLE default
0 3 4 7 8 9 10 11 12 13 14 15 16 17 18 19 20 21 22 23 
SCALARS geom_link_dim_0 int 1
LOOKUP_TABLE default
0 0 0 0 0 0 0 0 0 0 0 0 0 0 0 0 0 0 0 0 
SCALARS geom_link_id_0 int 1
LOOKUP_TABLE default
0 0 0 0 0 0 0 0 0 0 0 0 0 0 0 0 0 0 0 0 


CELL_DATA 4
SCALARS GMDS_ID int 1
LOOKUP_TABLE default
1 2 3 7 

SCALARS geom_link_dim_0 int 1
LOOKUP_TABLE default
0 0 0 0 

SCALARS geom_link_id_0 int 1
LOOKUP_TABLE default
0 0 0 0 

