# vtk DataFile Version 3.0
Generated by GMDS VTK Writer

ASCII
DATASET UNSTRUCTURED_GRID
POINTS 24 float
0 0 0
0 10 0
15 10 0
15 0 0
0 0 5
0 10 5
15 10 5
15 0 5
0 5 0
0 5 5
15 5 5
15 5 0
10 0 0
10 0 5
10 5 5
10 5 0
10 10 5
10 10 0
5 0 0
5 0 5
5 5 5
5 5 0
5 10 5
5 10 0

CELLS 6 54
8 18 19 20 21 12 13 14 15 
8 0 4 9 8 18 19 20 21 
8 12 13 14 15 3 7 10 11 
8 15 14 16 17 11 10 6 2 
8 8 9 5 1 21 20 22 23 
8 21 20 22 23 15 14 16 17 

CELL_TYPES 6
12 
12 
12 
12 
12 
12 
POINT_DATA 24
SCALARS GMDS_ID int 1
LOOKUP_TABLE default
0 1 2 3 4 5 6 7 8 9 10 11 12 13 14 15 16 17 18 19 20 21 22 23 
SCALARS geom_link_dim_0 int 1
LOOKUP_TABLE default
0 0 0 0 0 0 0 0 0 0 0 0 0 0 0 0 0 0 0 0 0 0 0 0 
SCALARS geom_link_id_0 int 1
LOOKUP_TABLE default
0 0 0 0 0 0 0 0 0 0 0 0 0 0 0 0 0 0 0 0 0 0 0 0 


CELL_DATA 6
SCALARS GMDS_ID int 1
LOOKUP_TABLE default
1 2 3 5 6 7 

SCALARS geom_link_dim_0 int 1
LOOKUP_TABLE default
0 0 0 0 0 0 

SCALARS geom_link_id_0 int 1
LOOKUP_TABLE default
0 0 0 0 0 0 

