# vtk DataFile Version 3.0
Generated by GMDS VTK Writer

ASCII
DATASET UNSTRUCTURED_GRID
POINTS 22 float
0 0 0
15 10 0
15 0 0
0 0 5
15 10 5
15 0 5
10 0 0
10 10 0
10 10 5
10 0 5
0 5 0
0 5 5
10 5 5
10 5 0
15 5 5
15 5 0
5 5 0
5 5 5
5 10 5
5 10 0
5 0 0
5 0 5

CELLS 5 45
8 16 17 18 19 13 12 8 7 
8 6 9 5 2 13 12 14 15 
8 13 12 14 15 7 8 4 1 
8 0 3 11 10 20 21 17 16 
8 20 21 17 16 6 9 12 13 

CELL_TYPES 5
12 
12 
12 
12 
12 
POINT_DATA 22
SCALARS GMDS_ID int 1
LOOKUP_TABLE default
0 2 3 4 6 7 8 9 10 11 12 13 14 15 16 17 18 19 20 21 22 23 
SCALARS geom_link_dim int 1
LOOKUP_TABLE default
1 0 1 1 0 1 2 1 1 2 1 1 1 1 1 1 1 1 1 1 2 2 
SCALARS geom_link_id int 1
LOOKUP_TABLE default
9 -1 10 8 -1 2 15 14 4 7 11 7 3 15 1 16 12 6 5 13 15 7 


CELL_DATA 5
SCALARS GMDS_ID int 1
LOOKUP_TABLE default
1 4 5 6 7 

SCALARS is_in int 1
LOOKUP_TABLE default
1 1 0 1 1 

SCALARS geom_link_dim int 1
LOOKUP_TABLE default
0 0 0 0 0 

SCALARS geom_link_id int 1
LOOKUP_TABLE default
0 0 0 0 0 

