# vtk DataFile Version 3.0
Generated by GMDS VTK Writer

ASCII
DATASET UNSTRUCTURED_GRID
POINTS 20 float
0 0 0
15 0 0
0 0 5
15 0 5
10 0 0
10 10 0
10 10 5
10 0 5
0 5 0
0 5 5
10 5 5
10 5 0
15 5 5
15 5 0
5 5 0
5 5 5
5 10 5
5 10 0
5 0 0
5 0 5

CELLS 4 36
8 14 15 16 17 11 10 6 5 
8 4 7 3 1 11 10 12 13 
8 0 2 9 8 18 19 15 14 
8 18 19 15 14 4 7 10 11 

CELL_TYPES 4
12 
12 
12 
12 
POINT_DATA 20
SCALARS GMDS_ID int 1
LOOKUP_TABLE default
0 3 4 7 8 9 10 11 12 13 14 15 16 17 18 19 20 21 22 23 
SCALARS geom_link_dim int 1
LOOKUP_TABLE default
1 1 1 1 2 1 1 2 1 1 1 1 1 1 1 1 1 1 2 2 
SCALARS geom_link_id int 1
LOOKUP_TABLE default
9 10 8 2 15 14 4 7 11 7 3 15 1 16 12 6 5 13 15 7 


CELL_DATA 4
SCALARS GMDS_ID int 1
LOOKUP_TABLE default
1 4 6 7 

SCALARS is_in int 1
LOOKUP_TABLE default
1 1 1 1 

SCALARS geom_link_dim int 1
LOOKUP_TABLE default
4 4 4 4 

SCALARS geom_link_id int 1
LOOKUP_TABLE default
1 1 1 1 

