# vtk DataFile Version 3.0
Generated by GMDS VTK Writer

ASCII
DATASET UNSTRUCTURED_GRID
POINTS 18 float
0 0 0
0 10 0
15 10 0
15 0 0
0 0 5
0 10 5
15 10 5
15 0 5
5 0 0
5 10 0
5 10 5
5 0 5
0 5 0
0 5 5
5 5 5
5 5 0
15 5 5
15 5 0

CELLS 33 99
2 13 5
2 4 13
2 12 1
2 0 12
2 0 4
2 1 5
2 2 6
2 3 7
2 0 8
2 8 3
2 1 9
2 9 2
2 5 10
2 10 6
2 4 11
2 11 7
2 9 10
2 8 11
2 11 14
2 14 10
2 8 15
2 15 9
2 12 13
2 13 14
2 15 14
2 12 15
2 7 16
2 16 6
2 3 17
2 17 2
2 16 14
2 17 16
2 17 15

CELL_TYPES 33
3 
3 
3 
3 
3 
3 
3 
3 
3 
3 
3 
3 
3 
3 
3 
3 
3 
3 
3 
3 
3 
3 
3 
3 
3 
3 
3 
3 
3 
3 
3 
3 
3 
POINT_DATA 18
SCALARS GMDS_ID int 1
LOOKUP_TABLE default
0 1 2 3 4 5 6 7 8 9 10 11 12 13 14 15 16 17 
SCALARS geom_link_dim int 1
LOOKUP_TABLE default
1 0 0 1 1 0 0 1 2 1 1 2 1 1 1 1 1 1 
SCALARS geom_link_id int 1
LOOKUP_TABLE default
9 -1 -1 10 8 -1 -1 2 15 13 5 7 11 7 6 12 1 16 


CELL_DATA 33
SCALARS GMDS_ID int 1
LOOKUP_TABLE default
1 3 5 7 8 9 10 11 12 13 14 15 16 17 18 19 21 23 24 25 26 27 28 29 30 31 32 33 34 35 36 37 38 

SCALARS geom_link_dim int 1
LOOKUP_TABLE default
0 2 0 2 2 0 0 2 2 2 0 0 0 0 2 2 2 0 0 2 0 2 2 2 0 2 2 0 2 0 0 2 0 

SCALARS geom_link_id int 1
LOOKUP_TABLE default
-1 19 -1 16 3 0 0 4 15 15 0 0 0 0 7 7 13 0 -1 21 -1 14 11 12 -1 23 20 -1 10 -1 -1 8 -1 

