# vtk DataFile Version 3.0
Generated by GMDS VTK Writer

ASCII
DATASET UNSTRUCTURED_GRID
POINTS 22 float
0 0 0
15 10 0
15 0 0
0 0 5
15 10 5
15 0 5
10 0 0
10 10 0
10 10 5
10 0 5
0 5 0
0 5 5
10 5 5
10 5 0
15 5 5
15 5 0
5 5 0
5 5 5
5 10 5
5 10 0
5 0 0
5 0 5

CELLS 41 123
2 18 8
2 10 16
2 3 11
2 16 13
2 0 10
2 0 3
2 1 4
2 2 5
2 6 2
2 7 1
2 8 4
2 9 5
2 17 12
2 7 8
2 11 17
2 6 9
2 9 12
2 12 8
2 6 13
2 13 7
2 10 11
2 13 12
2 5 14
2 14 4
2 2 15
2 15 1
2 14 12
2 15 14
2 15 13
2 19 7
2 16 17
2 18 17
2 19 18
2 19 16
2 0 20
2 20 6
2 3 21
2 21 9
2 20 21
2 21 17
2 20 16

CELL_TYPES 41
3 
3 
3 
3 
3 
3 
3 
3 
3 
3 
3 
3 
3 
3 
3 
3 
3 
3 
3 
3 
3 
3 
3 
3 
3 
3 
3 
3 
3 
3 
3 
3 
3 
3 
3 
3 
3 
3 
3 
3 
3 
POINT_DATA 22
SCALARS GMDS_ID int 1
LOOKUP_TABLE default
0 2 3 4 6 7 8 9 10 11 12 13 14 15 16 17 18 19 20 21 22 23 
SCALARS geom_link_dim int 1
LOOKUP_TABLE default
1 0 1 1 0 1 2 1 1 2 1 1 1 1 1 1 1 1 1 1 2 2 
SCALARS geom_link_id int 1
LOOKUP_TABLE default
9 -1 10 8 -1 2 15 14 4 7 11 7 3 15 1 16 12 6 5 13 15 7 


CELL_DATA 41
SCALARS GMDS_ID int 1
LOOKUP_TABLE default
0 2 3 6 7 8 10 11 13 15 17 19 20 21 22 23 24 25 26 27 28 30 32 33 34 35 36 37 38 40 41 42 43 44 45 46 47 48 49 50 51 

SCALARS geom_link_dim int 1
LOOKUP_TABLE default
2 2 2 0 2 2 0 2 2 0 0 2 0 2 2 0 0 2 0 2 2 0 2 0 2 0 2 2 2 2 2 2 2 2 2 2 2 2 0 0 0 

SCALARS geom_link_id int 1
LOOKUP_TABLE default
17 23 19 0 16 3 0 4 15 0 0 7 0 18 12 0 0 9 0 5 11 0 20 0 10 0 22 8 6 24 2 21 13 14 15 15 7 7 0 0 0 

