# vtk DataFile Version 3.0
Generated by GMDS VTK Writer

ASCII
DATASET UNSTRUCTURED_GRID
POINTS 22 float
0 0 0
0 10 0
15 0 0
0 0 5
0 10 5
15 0 5
0 5 0
0 5 5
15 5 5
15 5 0
10 0 0
10 0 5
10 5 5
10 5 0
10 10 5
10 10 0
5 0 0
5 0 5
5 5 5
5 5 0
5 10 5
5 10 0

CELLS 41 123
2 11 5
2 16 10
2 7 18
2 10 2
2 0 16
2 3 17
2 0 3
2 1 4
2 2 5
2 0 6
2 6 1
2 3 7
2 7 4
2 5 8
2 2 9
2 6 7
2 17 11
2 9 8
2 18 12
2 12 8
2 13 9
2 10 11
2 11 12
2 13 12
2 10 13
2 14 12
2 15 14
2 15 13
2 6 19
2 19 13
2 16 17
2 17 18
2 19 18
2 16 19
2 4 20
2 20 14
2 1 21
2 21 15
2 20 18
2 21 20
2 21 19

CELL_TYPES 41
3 
3 
3 
3 
3 
3 
3 
3 
3 
3 
3 
3 
3 
3 
3 
3 
3 
3 
3 
3 
3 
3 
3 
3 
3 
3 
3 
3 
3 
3 
3 
3 
3 
3 
3 
3 
3 
3 
3 
3 
3 
POINT_DATA 22
SCALARS GMDS_ID int 1
LOOKUP_TABLE default
0 1 3 4 5 7 8 9 10 11 12 13 14 15 16 17 18 19 20 21 22 23 
SCALARS geom_link_dim_0 int 1
LOOKUP_TABLE default
0 0 0 0 0 0 0 0 0 0 0 0 0 0 0 0 0 0 0 0 0 0 
SCALARS geom_link_id_0 int 1
LOOKUP_TABLE default
0 0 0 0 0 0 0 0 0 0 0 0 0 0 0 0 0 0 0 0 0 0 


CELL_DATA 41
SCALARS GMDS_ID int 1
LOOKUP_TABLE default
0 1 3 4 5 7 8 9 11 12 13 14 15 16 18 20 21 22 23 25 27 28 29 30 31 36 37 38 39 40 41 42 43 44 45 46 47 48 49 50 51 

SCALARS geom_link_dim_0 int 1
LOOKUP_TABLE default
0 0 0 0 0 0 0 0 0 0 0 0 0 0 0 0 0 0 0 0 0 0 0 0 0 0 0 0 0 0 0 0 0 0 0 0 0 0 0 0 0 

SCALARS geom_link_id_0 int 1
LOOKUP_TABLE default
0 0 0 0 0 0 0 0 0 0 0 0 0 0 0 0 0 0 0 0 0 0 0 0 0 0 0 0 0 0 0 0 0 0 0 0 0 0 0 0 0 

