# vtk DataFile Version 3.0
Generated by GMDS VTK Writer

ASCII
DATASET UNSTRUCTURED_GRID
POINTS 20 float
0 0 0
15 0 0
0 0 5
15 0 5
10 0 0
10 10 0
10 10 5
10 0 5
0 5 0
0 5 5
10 5 5
10 5 0
15 5 5
15 5 0
5 5 0
5 5 5
5 10 5
5 10 0
5 0 0
5 0 5

CELLS 36 108
2 16 6
2 8 14
2 2 9
2 14 11
2 0 8
2 0 2
2 1 3
2 4 1
2 7 3
2 15 10
2 5 6
2 9 15
2 4 7
2 7 10
2 10 6
2 4 11
2 11 5
2 8 9
2 11 10
2 3 12
2 1 13
2 12 10
2 13 12
2 13 11
2 17 5
2 14 15
2 16 15
2 17 16
2 17 14
2 0 18
2 18 4
2 2 19
2 19 7
2 18 19
2 19 15
2 18 14

CELL_TYPES 36
3 
3 
3 
3 
3 
3 
3 
3 
3 
3 
3 
3 
3 
3 
3 
3 
3 
3 
3 
3 
3 
3 
3 
3 
3 
3 
3 
3 
3 
3 
3 
3 
3 
3 
3 
3 
POINT_DATA 20
SCALARS GMDS_ID int 1
LOOKUP_TABLE default
0 3 4 7 8 9 10 11 12 13 14 15 16 17 18 19 20 21 22 23 
SCALARS geom_link_dim int 1
LOOKUP_TABLE default
1 1 1 1 2 1 1 2 1 1 1 1 1 1 1 1 1 1 2 2 
SCALARS geom_link_id int 1
LOOKUP_TABLE default
9 10 8 2 15 14 4 7 11 7 3 15 1 16 12 6 5 13 15 7 


CELL_DATA 36
SCALARS GMDS_ID int 1
LOOKUP_TABLE default
0 2 3 6 7 8 11 13 19 20 21 22 23 24 25 26 27 28 30 32 34 36 37 38 40 41 42 43 44 45 46 47 48 49 50 51 

SCALARS geom_link_dim int 1
LOOKUP_TABLE default
2 2 2 3 2 2 2 2 2 3 2 2 3 3 2 3 2 2 2 2 2 2 2 2 2 2 2 2 2 2 2 2 2 3 3 3 

SCALARS geom_link_id int 1
LOOKUP_TABLE default
17 23 19 1 16 3 4 15 7 6 18 12 7 6 9 1 5 11 1 20 10 22 8 6 24 2 21 13 14 15 15 7 7 7 6 1 

