# vtk DataFile Version 3.0
Generated by GMDS VTK Writer

ASCII
DATASET UNSTRUCTURED_GRID
POINTS 20 float
0 0 0
15 0 0
0 0 5
15 0 5
0 5 0
0 5 5
15 5 5
15 5 0
10 0 0
10 0 5
10 5 5
10 5 0
10 10 5
10 10 0
5 0 0
5 0 5
5 5 5
5 5 0
5 10 5
5 10 0

CELLS 36 108
2 9 3
2 14 8
2 5 16
2 8 1
2 0 14
2 2 15
2 0 2
2 1 3
2 0 4
2 2 5
2 3 6
2 1 7
2 4 5
2 15 9
2 7 6
2 16 10
2 10 6
2 11 7
2 8 9
2 9 10
2 11 10
2 8 11
2 12 10
2 13 12
2 13 11
2 4 17
2 17 11
2 14 15
2 15 16
2 17 16
2 14 17
2 18 12
2 19 13
2 18 16
2 19 18
2 19 17

CELL_TYPES 36
3 
3 
3 
3 
3 
3 
3 
3 
3 
3 
3 
3 
3 
3 
3 
3 
3 
3 
3 
3 
3 
3 
3 
3 
3 
3 
3 
3 
3 
3 
3 
3 
3 
3 
3 
3 
POINT_DATA 20
SCALARS GMDS_ID int 1
LOOKUP_TABLE default
0 3 4 7 8 9 10 11 12 13 14 15 16 17 18 19 20 21 22 23 
SCALARS geom_link_dim_0 int 1
LOOKUP_TABLE default
0 0 0 0 0 0 0 0 0 0 0 0 0 0 0 0 0 0 0 0 
SCALARS geom_link_id_0 int 1
LOOKUP_TABLE default
0 0 0 0 0 0 0 0 0 0 0 0 0 0 0 0 0 0 0 0 


CELL_DATA 36
SCALARS GMDS_ID int 1
LOOKUP_TABLE default
0 1 3 4 5 7 8 11 12 14 16 18 20 21 22 23 25 27 28 29 30 31 36 37 38 39 40 41 42 43 44 46 48 49 50 51 

SCALARS geom_link_dim_0 int 1
LOOKUP_TABLE default
0 0 0 0 0 0 0 0 0 0 0 0 0 0 0 0 0 0 0 0 0 0 0 0 0 0 0 0 0 0 0 0 0 0 0 0 

SCALARS geom_link_id_0 int 1
LOOKUP_TABLE default
0 0 0 0 0 0 0 0 0 0 0 0 0 0 0 0 0 0 0 0 0 0 0 0 0 0 0 0 0 0 0 0 0 0 0 0 

