# vtk DataFile Version 3.0
Generated by GMDS VTK Writer

ASCII
DATASET UNSTRUCTURED_GRID
POINTS 22 float
0 0 0
15 10 0
15 0 0
0 0 5
15 10 5
15 0 5
0 5 0
0 5 5
15 5 5
15 5 0
5 0 0
5 0 5
5 5 5
5 5 0
5 10 5
5 10 0
10 0 0
10 0 5
10 5 5
10 5 0
10 10 5
10 10 0

CELLS 41 123
2 16 2
2 3 11
2 12 18
2 10 16
2 0 10
2 11 17
2 0 3
2 1 4
2 2 5
2 0 6
2 3 7
2 5 8
2 8 4
2 2 9
2 9 1
2 6 7
2 17 5
2 9 8
2 18 8
2 7 12
2 6 13
2 10 11
2 11 12
2 13 12
2 10 13
2 14 12
2 15 14
2 15 13
2 13 19
2 19 9
2 16 17
2 17 18
2 18 19
2 16 19
2 14 20
2 20 4
2 15 21
2 21 1
2 18 20
2 20 21
2 19 21

CELL_TYPES 41
3 
3 
3 
3 
3 
3 
3 
3 
3 
3 
3 
3 
3 
3 
3 
3 
3 
3 
3 
3 
3 
3 
3 
3 
3 
3 
3 
3 
3 
3 
3 
3 
3 
3 
3 
3 
3 
3 
3 
3 
3 
POINT_DATA 22
SCALARS GMDS_ID int 1
LOOKUP_TABLE default
0 2 3 4 6 7 8 9 10 11 12 13 14 15 16 17 18 19 20 21 22 23 
SCALARS geom_link_dim int 1
LOOKUP_TABLE default
1 0 1 1 0 1 1 1 1 1 2 2 1 1 1 1 2 2 1 1 1 1 
SCALARS geom_link_id int 1
LOOKUP_TABLE default
9 -1 10 8 -1 2 11 7 1 16 15 7 6 12 5 13 15 7 3 15 4 14 


CELL_DATA 41
SCALARS GMDS_ID int 1
LOOKUP_TABLE default
0 1 2 3 4 5 6 8 9 10 12 14 15 16 17 18 19 20 21 22 23 24 25 26 27 30 31 32 33 34 35 36 37 38 39 40 41 42 43 44 45 

SCALARS geom_link_dim int 1
LOOKUP_TABLE default
0 2 0 0 0 2 2 0 2 2 2 2 0 2 0 2 2 2 2 2 2 0 0 2 0 2 2 2 0 2 0 0 0 0 2 0 2 0 2 2 2 

SCALARS geom_link_id int 1
LOOKUP_TABLE default
0 7 0 0 0 7 3 0 4 16 19 20 0 10 0 11 7 8 22 12 23 0 0 2 0 21 13 14 0 6 0 0 0 0 17 0 24 0 9 18 5 

