# vtk DataFile Version 3.0
Generated by GMDS VTK Writer

ASCII
DATASET UNSTRUCTURED_GRID
POINTS 24 float
0 0 0
0 10 0
15 10 0
15 0 0
0 0 5
0 10 5
15 10 5
15 0 5
0 5 0
0 5 5
15 5 5
15 5 0
5 0 0
5 0 5
5 5 5
5 5 0
5 10 5
5 10 0
10 0 0
10 0 5
10 5 5
10 5 0
10 10 5
10 10 0

CELLS 46 138
2 18 3
2 4 13
2 14 20
2 12 18
2 0 12
2 13 19
2 0 4
2 1 5
2 2 6
2 3 7
2 0 8
2 8 1
2 4 9
2 9 5
2 7 10
2 10 6
2 3 11
2 11 2
2 8 9
2 19 7
2 11 10
2 20 10
2 9 14
2 8 15
2 12 13
2 13 14
2 15 14
2 12 15
2 5 16
2 1 17
2 16 14
2 17 16
2 17 15
2 15 21
2 21 11
2 18 19
2 19 20
2 20 21
2 18 21
2 16 22
2 22 6
2 17 23
2 23 2
2 20 22
2 22 23
2 21 23

CELL_TYPES 46
3 
3 
3 
3 
3 
3 
3 
3 
3 
3 
3 
3 
3 
3 
3 
3 
3 
3 
3 
3 
3 
3 
3 
3 
3 
3 
3 
3 
3 
3 
3 
3 
3 
3 
3 
3 
3 
3 
3 
3 
3 
3 
3 
3 
3 
3 
POINT_DATA 24
SCALARS GMDS_ID int 1
LOOKUP_TABLE default
0 1 2 3 4 5 6 7 8 9 10 11 12 13 14 15 16 17 18 19 20 21 22 23 
SCALARS geom_link_dim int 1
LOOKUP_TABLE default
1 0 0 1 1 0 0 1 1 1 1 1 2 2 1 1 1 1 2 2 1 1 1 1 
SCALARS geom_link_id int 1
LOOKUP_TABLE default
9 -1 -1 10 8 -1 -1 2 11 7 1 16 15 7 6 12 5 13 15 7 3 15 4 14 


CELL_DATA 46
SCALARS GMDS_ID int 1
LOOKUP_TABLE default
1 2 3 5 6 7 8 9 10 11 12 13 14 15 16 17 18 19 20 21 22 23 24 26 28 29 30 31 32 34 36 37 38 39 40 41 42 43 44 45 46 47 48 49 50 51 

SCALARS geom_link_dim int 1
LOOKUP_TABLE default
0 2 0 0 0 2 2 0 0 2 2 0 2 0 2 0 2 0 2 2 2 2 2 2 0 0 0 0 0 0 2 2 2 0 2 0 0 0 0 2 0 2 0 2 2 2 

SCALARS geom_link_id int 1
LOOKUP_TABLE default
-1 7 -1 -1 0 7 3 0 0 4 16 0 19 0 20 0 10 0 11 7 8 22 12 23 0 0 0 0 0 0 21 13 14 -1 6 -1 -1 -1 -1 17 -1 24 -1 9 18 5 

