# vtk DataFile Version 3.0
Generated by GMDS VTK Writer

ASCII
DATASET UNSTRUCTURED_GRID
POINTS 20 float
0 0 0
5 0 5
15 0 0
0 0 5
5 0 0
15 0 5
0 5 0
0 5 5
15 5 5
15 5 0
10 0 0
10 0 5
10 5 5
10 5 0
10 10 5
10 10 0
5 5 5
5 5 0
5 10 5
5 10 0

CELLS 36 108
2 11 5
2 6 17
2 1 16
2 10 2
2 16 12
2 17 13
2 0 3
2 3 1
2 2 5
2 0 6
2 3 7
2 5 8
2 7 16
2 2 9
2 0 4
2 6 7
2 4 1
2 9 8
2 17 16
2 12 8
2 13 9
2 10 11
2 11 12
2 13 12
2 10 13
2 1 11
2 4 10
2 14 12
2 15 14
2 15 13
2 4 17
2 18 14
2 19 15
2 18 16
2 19 18
2 19 17

CELL_TYPES 36
3 
3 
3 
3 
3 
3 
3 
3 
3 
3 
3 
3 
3 
3 
3 
3 
3 
3 
3 
3 
3 
3 
3 
3 
3 
3 
3 
3 
3 
3 
3 
3 
3 
3 
3 
3 
POINT_DATA 20
SCALARS GMDS_ID int 1
LOOKUP_TABLE default
0 2 3 4 6 7 8 9 10 11 12 13 14 15 16 17 18 19 20 21 
SCALARS geom_link_dim int 1
LOOKUP_TABLE default
1 2 1 1 2 1 1 1 1 1 2 2 1 1 1 1 1 1 1 1 
SCALARS geom_link_id int 1
LOOKUP_TABLE default
9 7 10 8 15 2 11 7 1 16 15 7 3 15 4 14 6 12 5 13 


CELL_DATA 36
SCALARS GMDS_ID int 1
LOOKUP_TABLE default
0 1 3 4 5 7 8 10 11 12 14 16 17 18 19 20 21 22 23 25 27 28 29 30 31 33 35 36 37 38 39 41 43 44 45 46 

SCALARS geom_link_dim int 1
LOOKUP_TABLE default
2 2 3 2 3 3 2 2 2 2 2 2 2 2 2 2 3 2 2 2 2 3 3 2 3 2 2 2 2 2 3 2 2 2 2 2 

SCALARS geom_link_id int 1
LOOKUP_TABLE default
7 23 1 15 6 1 3 7 4 16 19 20 12 10 15 11 1 8 2 22 6 7 6 1 1 7 15 9 18 5 1 17 24 21 13 14 

