# vtk DataFile Version 3.0
Generated by GMDS VTK Writer

ASCII
DATASET UNSTRUCTURED_GRID
POINTS 20 float
0 0 0
15 0 0
0 0 5
15 0 5
0 5 0
0 5 5
15 5 5
15 5 0
5 0 0
5 0 5
5 5 5
5 5 0
5 10 5
5 10 0
10 0 0
10 0 5
10 5 5
10 5 0
10 10 5
10 10 0

CELLS 36 108
2 14 1
2 2 9
2 10 16
2 8 14
2 0 8
2 9 15
2 0 2
2 1 3
2 0 4
2 2 5
2 3 6
2 1 7
2 4 5
2 15 3
2 7 6
2 16 6
2 5 10
2 4 11
2 8 9
2 9 10
2 11 10
2 8 11
2 12 10
2 13 12
2 13 11
2 11 17
2 17 7
2 14 15
2 15 16
2 16 17
2 14 17
2 12 18
2 13 19
2 16 18
2 18 19
2 17 19

CELL_TYPES 36
3 
3 
3 
3 
3 
3 
3 
3 
3 
3 
3 
3 
3 
3 
3 
3 
3 
3 
3 
3 
3 
3 
3 
3 
3 
3 
3 
3 
3 
3 
3 
3 
3 
3 
3 
3 
POINT_DATA 20
SCALARS GMDS_ID int 1
LOOKUP_TABLE default
0 3 4 7 8 9 10 11 12 13 14 15 16 17 18 19 20 21 22 23 
SCALARS geom_link_dim int 1
LOOKUP_TABLE default
1 1 1 1 1 1 1 1 2 2 1 1 1 1 2 2 1 1 1 1 
SCALARS geom_link_id int 1
LOOKUP_TABLE default
9 10 8 2 11 7 1 16 15 7 6 12 5 13 15 7 3 15 4 14 


CELL_DATA 36
SCALARS GMDS_ID int 1
LOOKUP_TABLE default
1 2 3 5 6 7 8 11 12 14 16 18 20 21 22 23 24 26 28 29 30 31 36 37 38 39 40 41 42 43 44 45 47 49 50 51 

SCALARS geom_link_dim int 1
LOOKUP_TABLE default
0 2 0 0 0 2 2 2 2 2 2 2 2 2 2 2 2 2 0 0 2 0 2 2 2 0 2 0 0 2 0 2 2 2 2 2 

SCALARS geom_link_id int 1
LOOKUP_TABLE default
0 7 0 0 0 7 3 4 16 19 20 10 11 7 8 22 12 23 0 0 2 0 21 13 14 0 6 0 0 1 0 17 24 9 18 5 

