# vtk DataFile Version 3.0
Generated by GMDS VTK Writer

ASCII
DATASET UNSTRUCTURED_GRID
POINTS 24 float
0 0 0
0 10 0
15 10 0
15 0 0
0 0 5
0 10 5
15 10 5
15 0 5
10 0 0
10 10 0
10 10 5
10 0 5
0 5 0
0 5 5
10 5 5
10 5 0
15 5 5
15 5 0
5 5 0
5 5 5
5 10 5
5 10 0
5 0 0
5 0 5

CELLS 46 138
2 20 10
2 13 5
2 12 18
2 4 13
2 5 20
2 12 1
2 18 15
2 0 12
2 0 4
2 1 5
2 2 6
2 3 7
2 8 3
2 9 2
2 10 6
2 11 7
2 19 14
2 9 10
2 13 19
2 8 11
2 11 14
2 14 10
2 8 15
2 15 9
2 12 13
2 15 14
2 7 16
2 16 6
2 3 17
2 17 2
2 16 14
2 17 16
2 17 15
2 1 21
2 21 9
2 18 19
2 20 19
2 21 20
2 21 18
2 0 22
2 22 8
2 4 23
2 23 11
2 22 23
2 23 19
2 22 18

CELL_TYPES 46
3 
3 
3 
3 
3 
3 
3 
3 
3 
3 
3 
3 
3 
3 
3 
3 
3 
3 
3 
3 
3 
3 
3 
3 
3 
3 
3 
3 
3 
3 
3 
3 
3 
3 
3 
3 
3 
3 
3 
3 
3 
3 
3 
3 
3 
3 
POINT_DATA 24
SCALARS GMDS_ID int 1
LOOKUP_TABLE default
0 1 2 3 4 5 6 7 8 9 10 11 12 13 14 15 16 17 18 19 20 21 22 23 
SCALARS geom_link_dim int 1
LOOKUP_TABLE default
1 0 0 1 1 0 0 1 2 1 1 2 1 1 1 1 1 1 1 1 1 1 2 2 
SCALARS geom_link_id int 1
LOOKUP_TABLE default
9 -1 -1 10 8 -1 -1 2 15 14 4 7 11 7 3 15 1 16 12 6 5 13 15 7 


CELL_DATA 46
SCALARS GMDS_ID int 1
LOOKUP_TABLE default
0 1 2 3 4 5 6 7 8 9 10 11 13 15 17 19 20 21 22 23 24 25 26 27 28 30 32 33 34 35 36 37 38 39 40 41 42 43 44 45 46 47 48 49 50 51 

SCALARS geom_link_dim int 1
LOOKUP_TABLE default
2 0 2 2 0 0 0 2 2 0 0 2 2 0 0 2 0 2 2 0 0 2 0 2 2 0 2 0 2 0 2 2 2 0 2 0 2 2 2 2 2 2 2 0 0 0 

SCALARS geom_link_id int 1
LOOKUP_TABLE default
17 0 23 19 -1 0 -1 16 3 0 0 4 15 0 0 7 -1 18 12 0 0 9 0 5 11 0 20 0 10 0 22 8 6 -1 24 -1 21 13 14 15 15 7 7 -1 -1 -1 

