# vtk DataFile Version 3.0
Generated by GMDS VTK Writer

ASCII
DATASET UNSTRUCTURED_GRID
POINTS 22 float
0 0 0
0 10 0
15 0 0
0 0 5
0 10 5
15 0 5
5 0 0
5 10 0
5 10 5
5 0 5
0 5 0
0 5 5
5 5 5
5 5 0
15 5 5
15 5 0
10 0 0
10 0 5
10 5 5
10 5 0
10 10 5
10 10 0

CELLS 41 123
2 18 12
2 11 4
2 2 16
2 3 11
2 14 18
2 10 1
2 16 6
2 0 10
2 0 3
2 1 4
2 2 5
2 0 6
2 1 7
2 4 8
2 3 9
2 17 9
2 7 8
2 5 17
2 6 9
2 9 12
2 12 8
2 6 13
2 13 7
2 10 11
2 11 12
2 13 12
2 10 13
2 5 14
2 2 15
2 15 14
2 15 19
2 19 13
2 16 17
2 17 18
2 18 19
2 16 19
2 20 8
2 21 7
2 20 18
2 21 20
2 21 19

CELL_TYPES 41
3 
3 
3 
3 
3 
3 
3 
3 
3 
3 
3 
3 
3 
3 
3 
3 
3 
3 
3 
3 
3 
3 
3 
3 
3 
3 
3 
3 
3 
3 
3 
3 
3 
3 
3 
3 
3 
3 
3 
3 
3 
POINT_DATA 22
SCALARS GMDS_ID int 1
LOOKUP_TABLE default
0 1 3 4 5 7 8 9 10 11 12 13 14 15 16 17 18 19 20 21 22 23 
SCALARS geom_link_dim int 1
LOOKUP_TABLE default
1 0 1 1 0 1 2 1 1 2 1 1 1 1 1 1 2 2 1 1 1 1 
SCALARS geom_link_id int 1
LOOKUP_TABLE default
9 -1 10 8 -1 2 15 13 5 7 11 7 6 12 1 16 15 7 3 15 4 14 


CELL_DATA 41
SCALARS GMDS_ID int 1
LOOKUP_TABLE default
0 1 2 3 4 5 6 7 8 9 11 12 14 16 18 20 21 22 23 24 25 26 27 28 29 30 31 32 34 37 39 40 41 42 43 44 46 48 49 50 51 

SCALARS geom_link_dim int 1
LOOKUP_TABLE default
0 0 2 2 2 0 2 2 2 0 2 2 0 0 2 2 2 2 0 0 2 0 2 2 2 0 2 2 2 2 2 0 0 0 2 0 2 2 2 2 2 

SCALARS geom_link_id int 1
LOOKUP_TABLE default
0 0 15 19 22 0 15 16 3 0 4 15 0 0 7 7 13 7 0 0 21 0 14 11 12 0 23 20 10 8 6 0 0 0 1 0 17 24 9 18 5 

