# vtk DataFile Version 3.0
Generated by GMDS VTK Writer

ASCII
DATASET UNSTRUCTURED_GRID
POINTS 22 float
0 0 0
0 10 0
5 0 5
15 0 0
0 0 5
0 10 5
5 0 0
15 0 5
0 5 0
0 5 5
15 5 5
15 5 0
10 0 0
10 0 5
10 5 5
10 5 0
10 10 5
10 10 0
5 5 5
5 5 0
5 10 5
5 10 0

CELLS 41 123
2 13 7
2 8 19
2 2 18
2 12 3
2 18 14
2 19 15
2 0 4
2 1 5
2 4 2
2 3 7
2 0 8
2 8 1
2 4 9
2 9 5
2 7 10
2 9 18
2 3 11
2 0 6
2 8 9
2 6 2
2 11 10
2 19 18
2 14 10
2 15 11
2 12 13
2 13 14
2 15 14
2 12 15
2 2 13
2 6 12
2 16 14
2 17 16
2 17 15
2 6 19
2 5 20
2 20 16
2 1 21
2 21 17
2 20 18
2 21 20
2 21 19

CELL_TYPES 41
3 
3 
3 
3 
3 
3 
3 
3 
3 
3 
3 
3 
3 
3 
3 
3 
3 
3 
3 
3 
3 
3 
3 
3 
3 
3 
3 
3 
3 
3 
3 
3 
3 
3 
3 
3 
3 
3 
3 
3 
3 
POINT_DATA 22
SCALARS GMDS_ID int 1
LOOKUP_TABLE default
0 1 2 3 4 5 6 7 8 9 10 11 12 13 14 15 16 17 18 19 20 21 
SCALARS geom_link_dim_0 int 1
LOOKUP_TABLE default
0 0 0 0 0 0 0 0 0 0 0 0 0 0 0 0 0 0 0 0 0 0 
SCALARS geom_link_id_0 int 1
LOOKUP_TABLE default
0 0 0 0 0 0 0 0 0 0 0 0 0 0 0 0 0 0 0 0 0 0 


CELL_DATA 41
SCALARS GMDS_ID int 1
LOOKUP_TABLE default
0 1 3 4 5 7 8 9 10 11 12 13 14 15 16 17 18 19 20 21 22 23 25 27 28 29 30 31 33 35 36 37 38 39 40 41 42 43 44 45 46 

SCALARS geom_link_dim_0 int 1
LOOKUP_TABLE default
0 0 0 0 0 0 0 0 0 0 0 0 0 0 0 0 0 0 0 0 0 0 0 0 0 0 0 0 0 0 0 0 0 0 0 0 0 0 0 0 0 

SCALARS geom_link_id_0 int 1
LOOKUP_TABLE default
0 0 0 0 0 0 0 0 0 0 0 0 0 0 0 0 0 0 0 0 0 0 0 0 0 0 0 0 0 0 0 0 0 0 0 0 0 0 0 0 0 

