# vtk DataFile Version 3.0
Generated by GMDS VTK Writer

ASCII
DATASET UNSTRUCTURED_GRID
POINTS 20 float
0 0 0
15 0 0
0 0 5
15 0 5
5 0 0
5 10 0
5 10 5
5 0 5
10 0 0
10 10 0
10 10 5
10 0 5
0 5 0
0 5 5
5 5 5
5 5 0
10 5 5
10 5 0
15 5 5
15 5 0

CELLS 36 108
2 5 9
2 8 1
2 4 8
2 0 2
2 1 3
2 0 4
2 2 13
2 2 7
2 0 12
2 5 6
2 4 7
2 6 10
2 7 11
2 11 3
2 9 10
2 8 11
2 7 14
2 14 6
2 4 15
2 15 5
2 12 13
2 13 14
2 15 14
2 12 15
2 11 16
2 16 10
2 8 17
2 17 9
2 14 16
2 17 16
2 15 17
2 3 18
2 1 19
2 18 16
2 19 18
2 19 17

CELL_TYPES 36
3 
3 
3 
3 
3 
3 
3 
3 
3 
3 
3 
3 
3 
3 
3 
3 
3 
3 
3 
3 
3 
3 
3 
3 
3 
3 
3 
3 
3 
3 
3 
3 
3 
3 
3 
3 
POINT_DATA 20
SCALARS GMDS_ID int 1
LOOKUP_TABLE default
0 3 4 7 8 9 10 11 12 13 14 15 16 17 18 19 20 21 22 23 
SCALARS geom_link_dim_0 int 1
LOOKUP_TABLE default
0 0 0 0 0 0 0 0 0 0 0 0 0 0 0 0 0 0 0 0 
SCALARS geom_link_id_0 int 1
LOOKUP_TABLE default
0 0 0 0 0 0 0 0 0 0 0 0 0 0 0 0 0 0 0 0 


CELL_DATA 36
SCALARS GMDS_ID int 1
LOOKUP_TABLE default
3 5 7 8 11 12 13 18 19 21 23 24 26 27 29 31 32 33 34 35 36 37 38 39 40 41 42 43 44 45 46 47 49 51 52 53 

SCALARS geom_link_dim_0 int 1
LOOKUP_TABLE default
0 0 0 0 0 0 0 0 0 0 0 0 0 0 0 0 0 0 0 0 0 0 0 0 0 0 0 0 0 0 0 0 0 0 0 0 

SCALARS geom_link_id_0 int 1
LOOKUP_TABLE default
0 0 0 0 0 0 0 0 0 0 0 0 0 0 0 0 0 0 0 0 0 0 0 0 0 0 0 0 0 0 0 0 0 0 0 0 

