# vtk DataFile Version 3.0
Generated by GMDS VTK Writer

ASCII
DATASET UNSTRUCTURED_GRID
POINTS 20 float
0 0 0
15 0 0
0 0 5
15 0 5
5 0 0
5 10 0
5 10 5
5 0 5
0 5 0
0 5 5
5 5 5
5 5 0
15 5 5
15 5 0
10 0 0
10 0 5
10 5 5
10 5 0
10 10 5
10 10 0

CELLS 36 108
2 16 10
2 1 14
2 2 9
2 12 16
2 14 4
2 0 8
2 0 2
2 1 3
2 0 4
2 2 7
2 15 7
2 5 6
2 3 15
2 4 7
2 7 10
2 10 6
2 4 11
2 11 5
2 8 9
2 9 10
2 11 10
2 8 11
2 3 12
2 1 13
2 13 12
2 13 17
2 17 11
2 14 15
2 15 16
2 16 17
2 14 17
2 18 6
2 19 5
2 18 16
2 19 18
2 19 17

CELL_TYPES 36
3 
3 
3 
3 
3 
3 
3 
3 
3 
3 
3 
3 
3 
3 
3 
3 
3 
3 
3 
3 
3 
3 
3 
3 
3 
3 
3 
3 
3 
3 
3 
3 
3 
3 
3 
3 
POINT_DATA 20
SCALARS GMDS_ID int 1
LOOKUP_TABLE default
0 3 4 7 8 9 10 11 12 13 14 15 16 17 18 19 20 21 22 23 
SCALARS geom_link_dim int 1
LOOKUP_TABLE default
1 1 1 1 2 1 1 2 1 1 1 1 1 1 2 2 1 1 1 1 
SCALARS geom_link_id int 1
LOOKUP_TABLE default
9 10 8 2 15 13 5 7 11 7 6 12 1 16 15 7 3 15 4 14 


CELL_DATA 36
SCALARS GMDS_ID int 1
LOOKUP_TABLE default
0 2 3 4 6 7 8 11 12 18 20 21 22 23 24 25 26 27 28 29 30 31 32 34 37 39 40 41 42 43 44 46 48 49 50 51 

SCALARS geom_link_dim int 1
LOOKUP_TABLE default
3 2 2 2 2 2 2 2 2 2 2 2 2 3 3 2 3 2 2 2 2 2 2 2 2 2 3 3 3 2 3 2 2 2 2 2 

SCALARS geom_link_id int 1
LOOKUP_TABLE default
6 15 19 22 15 16 3 4 15 7 7 13 7 7 6 21 1 14 11 12 2 23 20 10 8 6 1 7 6 1 1 17 24 9 18 5 

