# vtk DataFile Version 3.0
Generated by GMDS VTK Writer

ASCII
DATASET UNSTRUCTURED_GRID
POINTS 24 float
0 0 0
0 10 0
15 10 0
15 0 0
0 0 5
0 10 5
15 10 5
15 0 5
5 0 0
5 10 0
5 10 5
5 0 5
0 5 0
0 5 5
5 5 5
5 5 0
15 5 5
15 5 0
10 0 0
10 0 5
10 5 5
10 5 0
10 10 5
10 10 0

CELLS 46 138
2 20 14
2 13 5
2 3 18
2 4 13
2 16 20
2 12 1
2 18 8
2 0 12
2 0 4
2 1 5
2 2 6
2 3 7
2 0 8
2 1 9
2 5 10
2 4 11
2 19 11
2 9 10
2 7 19
2 8 11
2 11 14
2 14 10
2 8 15
2 15 9
2 12 13
2 13 14
2 15 14
2 12 15
2 7 16
2 16 6
2 3 17
2 17 2
2 17 16
2 17 21
2 21 15
2 18 19
2 19 20
2 20 21
2 18 21
2 6 22
2 22 10
2 2 23
2 23 9
2 22 20
2 23 22
2 23 21

CELL_TYPES 46
3 
3 
3 
3 
3 
3 
3 
3 
3 
3 
3 
3 
3 
3 
3 
3 
3 
3 
3 
3 
3 
3 
3 
3 
3 
3 
3 
3 
3 
3 
3 
3 
3 
3 
3 
3 
3 
3 
3 
3 
3 
3 
3 
3 
3 
3 
POINT_DATA 24
SCALARS GMDS_ID int 1
LOOKUP_TABLE default
0 1 2 3 4 5 6 7 8 9 10 11 12 13 14 15 16 17 18 19 20 21 22 23 
SCALARS geom_link_dim int 1
LOOKUP_TABLE default
1 0 0 1 1 0 0 1 2 1 1 2 1 1 1 1 1 1 2 2 1 1 1 1 
SCALARS geom_link_id int 1
LOOKUP_TABLE default
9 -1 -1 10 8 -1 -1 2 15 13 5 7 11 7 6 12 1 16 15 7 3 15 4 14 


CELL_DATA 46
SCALARS GMDS_ID int 1
LOOKUP_TABLE default
0 1 2 3 4 5 6 7 8 9 10 11 12 14 16 18 20 21 22 23 24 25 26 27 28 29 30 31 32 33 34 35 37 39 40 41 42 43 44 45 46 47 48 49 50 51 

SCALARS geom_link_dim int 1
LOOKUP_TABLE default
0 0 2 2 2 0 2 2 2 0 0 2 2 0 0 2 2 2 2 0 0 2 0 2 2 2 0 2 2 0 2 0 2 2 0 0 0 0 0 0 2 0 2 2 2 2 

SCALARS geom_link_id int 1
LOOKUP_TABLE default
-1 0 15 19 22 0 15 16 3 0 0 4 15 0 0 7 7 13 7 0 0 21 0 14 11 12 0 23 20 0 10 0 8 6 -1 -1 -1 -1 -1 -1 17 -1 24 9 18 5 

