# vtk DataFile Version 3.0
Generated by GMDS VTK Writer

ASCII
DATASET UNSTRUCTURED_GRID
POINTS 20 float
0 0 0
15 0 0
0 0 5
15 0 5
0 5 0
0 5 5
15 5 5
15 5 0
10 0 0
10 0 5
10 5 5
10 5 0
10 10 5
10 10 0
5 0 0
5 0 5
5 5 5
5 5 0
5 10 5
5 10 0

CELLS 21 105
4 9 10 6 3 
4 0 4 17 14 
4 8 9 3 1 
4 17 16 10 11 
4 0 2 5 4 
4 4 5 16 17 
4 15 16 10 9 
4 1 3 6 7 
4 2 5 16 15 
4 14 15 9 8 
4 0 2 15 14 
4 11 10 6 7 
4 8 11 7 1 
4 8 9 10 11 
4 11 10 12 13 
4 14 17 11 8 
4 14 15 16 17 
4 18 16 10 12 
4 19 18 12 13 
4 19 17 11 13 
4 17 16 18 19 

CELL_TYPES 21
9 
9 
9 
9 
9 
9 
9 
9 
9 
9 
9 
9 
9 
9 
9 
9 
9 
9 
9 
9 
9 
POINT_DATA 20
SCALARS GMDS_ID int 1
LOOKUP_TABLE default
0 3 4 7 8 9 10 11 12 13 14 15 16 17 18 19 20 21 22 23 
SCALARS geom_link_dim_0 int 1
LOOKUP_TABLE default
0 0 0 0 0 0 0 0 0 0 0 0 0 0 0 0 0 0 0 0 
SCALARS geom_link_id_0 int 1
LOOKUP_TABLE default
0 0 0 0 0 0 0 0 0 0 0 0 0 0 0 0 0 0 0 0 


CELL_DATA 21
SCALARS GMDS_ID int 1
LOOKUP_TABLE default
0 2 3 4 6 8 9 10 12 13 14 16 18 19 26 27 28 30 32 34 35 

SCALARS geom_link_dim_0 int 1
LOOKUP_TABLE default
0 0 0 0 0 0 0 0 0 0 0 0 0 0 0 0 0 0 0 0 0 

SCALARS geom_link_id_0 int 1
LOOKUP_TABLE default
0 0 0 0 0 0 0 0 0 0 0 0 0 0 0 0 0 0 0 0 0 

