# vtk DataFile Version 3.0
Generated by GMDS VTK Writer

ASCII
DATASET UNSTRUCTURED_GRID
POINTS 20 float
0 0 0
5 0 5
15 0 0
0 0 5
5 0 0
15 0 5
0 5 0
0 5 5
15 5 5
15 5 0
10 0 0
10 0 5
10 5 5
10 5 0
10 10 5
10 10 0
5 5 5
5 5 0
5 10 5
5 10 0

CELLS 21 105
4 11 12 8 5 
4 18 16 12 14 
4 10 11 5 2 
4 0 3 7 6 
4 4 1 16 17 
4 4 17 13 10 
4 2 5 8 9 
4 1 16 12 11 
4 0 6 17 4 
4 17 16 12 13 
4 6 7 16 17 
4 13 12 8 9 
4 10 13 9 2 
4 10 11 12 13 
4 3 7 16 1 
4 4 1 11 10 
4 0 3 1 4 
4 13 12 14 15 
4 19 18 14 15 
4 19 17 13 15 
4 17 16 18 19 

CELL_TYPES 21
9 
9 
9 
9 
9 
9 
9 
9 
9 
9 
9 
9 
9 
9 
9 
9 
9 
9 
9 
9 
9 
POINT_DATA 20
SCALARS GMDS_ID int 1
LOOKUP_TABLE default
0 2 3 4 6 7 8 9 10 11 12 13 14 15 16 17 18 19 20 21 
SCALARS geom_link_dim_0 int 1
LOOKUP_TABLE default
0 0 0 0 0 0 0 0 0 0 0 0 0 0 0 0 0 0 0 0 
SCALARS geom_link_id_0 int 1
LOOKUP_TABLE default
0 0 0 0 0 0 0 0 0 0 0 0 0 0 0 0 0 0 0 0 


CELL_DATA 21
SCALARS GMDS_ID int 1
LOOKUP_TABLE default
0 2 3 6 8 9 10 11 12 13 14 16 18 19 21 23 25 26 28 30 31 

SCALARS geom_link_dim_0 int 1
LOOKUP_TABLE default
0 0 0 0 0 0 0 0 0 0 0 0 0 0 0 0 0 0 0 0 0 

SCALARS geom_link_id_0 int 1
LOOKUP_TABLE default
0 0 0 0 0 0 0 0 0 0 0 0 0 0 0 0 0 0 0 0 0 

