# vtk DataFile Version 3.0
Generated by GMDS VTK Writer

ASCII
DATASET UNSTRUCTURED_GRID
POINTS 8 float
0 0 0
0 10 0
15 10 0
15 0 0
0 0 5
0 10 5
15 10 5
15 0 5

CELLS 6 30
4 0 3 2 1 
4 0 1 5 4 
4 1 2 6 5 
4 2 3 7 6 
4 0 4 7 3 
4 4 5 6 7 

CELL_TYPES 6
9 
9 
9 
9 
9 
9 
POINT_DATA 8
SCALARS GMDS_ID int 1
LOOKUP_TABLE default
0 1 2 3 4 5 6 7 
SCALARS geom_link_dim int 1
LOOKUP_TABLE default
1 0 0 1 1 0 0 1 
SCALARS geom_link_id int 1
LOOKUP_TABLE default
9 -1 -1 10 8 -1 -1 2 


CELL_DATA 6
SCALARS GMDS_ID int 1
LOOKUP_TABLE default
0 1 2 3 4 5 

SCALARS geom_link_dim int 1
LOOKUP_TABLE default
0 0 0 0 0 0 

SCALARS geom_link_id int 1
LOOKUP_TABLE default
0 0 0 0 0 0 

