# vtk DataFile Version 3.0
Generated by GMDS VTK Writer

ASCII
DATASET UNSTRUCTURED_GRID
POINTS 24 float
0 0 0
0 10 0
15 10 0
15 0 0
0 0 5
0 10 5
15 10 5
15 0 5
0 5 0
0 5 5
15 5 5
15 5 0
5 0 0
5 0 5
5 5 5
5 5 0
5 10 5
5 10 0
10 0 0
10 0 5
10 5 5
10 5 0
10 10 5
10 10 0

CELLS 29 145
4 4 9 14 13 
4 12 15 21 18 
4 20 21 11 10 
4 0 4 13 12 
4 0 4 9 8 
4 8 9 5 1 
4 14 15 21 20 
4 19 20 10 7 
4 3 7 10 11 
4 11 10 6 2 
4 13 14 20 19 
4 18 19 7 3 
4 12 13 19 18 
4 8 9 14 15 
4 0 8 15 12 
4 12 13 14 15 
4 5 9 14 16 
4 1 5 16 17 
4 1 8 15 17 
4 15 14 16 17 
4 18 21 11 3 
4 18 19 20 21 
4 14 16 22 20 
4 20 22 6 10 
4 16 17 23 22 
4 22 23 2 6 
4 15 17 23 21 
4 21 23 2 11 
4 21 20 22 23 

CELL_TYPES 29
9 
9 
9 
9 
9 
9 
9 
9 
9 
9 
9 
9 
9 
9 
9 
9 
9 
9 
9 
9 
9 
9 
9 
9 
9 
9 
9 
9 
9 
POINT_DATA 24
SCALARS GMDS_ID int 1
LOOKUP_TABLE default
0 1 2 3 4 5 6 7 8 9 10 11 12 13 14 15 16 17 18 19 20 21 22 23 
SCALARS geom_link_dim_0 int 1
LOOKUP_TABLE default
0 0 0 0 0 0 0 0 0 0 0 0 0 0 0 0 0 0 0 0 0 0 0 0 
SCALARS geom_link_id_0 int 1
LOOKUP_TABLE default
0 0 0 0 0 0 0 0 0 0 0 0 0 0 0 0 0 0 0 0 0 0 0 0 


CELL_DATA 29
SCALARS GMDS_ID int 1
LOOKUP_TABLE default
1 2 4 5 6 7 8 9 10 11 12 13 14 15 17 19 20 22 24 26 27 28 29 30 31 32 33 34 35 

SCALARS geom_link_dim_0 int 1
LOOKUP_TABLE default
0 0 0 0 0 0 0 0 0 0 0 0 0 0 0 0 0 0 0 0 0 0 0 0 0 0 0 0 0 

SCALARS geom_link_id_0 int 1
LOOKUP_TABLE default
0 0 0 0 0 0 0 0 0 0 0 0 0 0 0 0 0 0 0 0 0 0 0 0 0 0 0 0 0 

