# vtk DataFile Version 3.0
Generated by GMDS VTK Writer

ASCII
DATASET UNSTRUCTURED_GRID
POINTS 22 float
0 0 0
0 10 0
5 0 5
15 0 0
0 0 5
0 10 5
5 0 0
15 0 5
0 5 0
0 5 5
15 5 5
15 5 0
10 0 0
10 0 5
10 5 5
10 5 0
10 10 5
10 10 0
5 5 5
5 5 0
5 10 5
5 10 0

CELLS 25 125
4 13 14 10 7 
4 20 18 14 16 
4 12 13 7 3 
4 5 9 18 20 
4 0 4 9 8 
4 8 9 5 1 
4 6 2 18 19 
4 6 19 15 12 
4 3 7 10 11 
4 2 18 14 13 
4 0 8 19 6 
4 19 18 14 15 
4 8 9 18 19 
4 15 14 10 11 
4 12 15 11 3 
4 12 13 14 15 
4 4 9 18 2 
4 6 2 13 12 
4 0 4 2 6 
4 15 14 16 17 
4 1 5 20 21 
4 21 20 16 17 
4 1 8 19 21 
4 21 19 15 17 
4 19 18 20 21 

CELL_TYPES 25
9 
9 
9 
9 
9 
9 
9 
9 
9 
9 
9 
9 
9 
9 
9 
9 
9 
9 
9 
9 
9 
9 
9 
9 
9 
POINT_DATA 22
SCALARS GMDS_ID int 1
LOOKUP_TABLE default
0 1 2 3 4 5 6 7 8 9 10 11 12 13 14 15 16 17 18 19 20 21 
SCALARS geom_link_dim int 1
LOOKUP_TABLE default
1 0 2 1 1 0 2 1 1 1 1 1 2 2 1 1 1 1 1 1 1 1 
SCALARS geom_link_id int 1
LOOKUP_TABLE default
9 -1 7 10 8 -1 15 2 11 7 1 16 15 7 3 15 4 14 6 12 5 13 


CELL_DATA 25
SCALARS GMDS_ID int 1
LOOKUP_TABLE default
0 2 3 4 6 7 8 9 10 11 12 13 14 16 18 19 21 23 25 26 27 28 29 30 31 

SCALARS geom_link_dim int 1
LOOKUP_TABLE default
0 0 0 0 0 0 0 0 0 0 0 0 0 0 0 0 0 0 0 0 0 0 0 0 0 

SCALARS geom_link_id int 1
LOOKUP_TABLE default
0 -1 0 -1 0 0 -1 -1 0 -1 -1 -1 -1 0 0 0 -1 -1 -1 0 -1 -1 -1 -1 -1 

