# vtk DataFile Version 3.0
Generated by GMDS VTK Writer

ASCII
DATASET UNSTRUCTURED_GRID
POINTS 18 float
0 0 0
0 10 0
15 10 0
15 0 0
0 0 5
0 10 5
15 10 5
15 0 5
5 0 0
5 10 0
5 10 5
5 0 5
0 5 0
0 5 5
5 5 5
5 5 0
15 5 5
15 5 0

CELLS 20 100
4 13 14 10 5 
4 4 11 14 13 
4 12 13 5 1 
4 0 4 13 12 
4 1 5 10 9 
4 9 10 6 2 
4 0 4 11 8 
4 8 11 7 3 
4 8 11 14 15 
4 15 14 10 9 
4 0 8 15 12 
4 12 15 9 1 
4 12 13 14 15 
4 7 11 14 16 
4 16 14 10 6 
4 3 7 16 17 
4 17 16 6 2 
4 3 8 15 17 
4 17 15 9 2 
4 15 14 16 17 

CELL_TYPES 20
9 
9 
9 
9 
9 
9 
9 
9 
9 
9 
9 
9 
9 
9 
9 
9 
9 
9 
9 
9 
POINT_DATA 18
SCALARS GMDS_ID int 1
LOOKUP_TABLE default
0 1 2 3 4 5 6 7 8 9 10 11 12 13 14 15 16 17 
SCALARS geom_link_dim int 1
LOOKUP_TABLE default
1 0 0 1 1 0 0 1 2 1 1 2 1 1 1 1 1 1 
SCALARS geom_link_id int 1
LOOKUP_TABLE default
9 -1 -1 10 8 -1 -1 2 15 13 5 7 11 7 6 12 1 16 


CELL_DATA 20
SCALARS GMDS_ID int 1
LOOKUP_TABLE default
0 2 4 5 8 9 12 13 15 16 17 18 19 20 21 22 23 24 25 26 

SCALARS geom_link_dim int 1
LOOKUP_TABLE default
0 0 0 0 0 0 0 0 0 0 0 0 0 0 0 0 0 0 0 0 

SCALARS geom_link_id int 1
LOOKUP_TABLE default
-1 -1 -1 -1 0 0 0 0 -1 -1 -1 -1 -1 -1 -1 -1 -1 -1 -1 -1 

