# vtk DataFile Version 3.0
Generated by GMDS VTK Writer

ASCII
DATASET UNSTRUCTURED_GRID
POINTS 24 float
0 0 0
0 10 0
15 10 0
15 0 0
0 0 5
0 10 5
15 10 5
15 0 5
10 0 0
10 10 0
10 10 5
10 0 5
0 5 0
0 5 5
10 5 5
10 5 0
15 5 5
15 5 0
5 5 0
5 5 5
5 10 5
5 10 0
5 0 0
5 0 5

CELLS 29 145
4 1 12 18 21 
4 21 20 10 9 
4 12 13 5 1 
4 0 4 13 12 
4 1 5 20 21 
4 20 19 14 10 
4 9 10 6 2 
4 5 13 19 20 
4 18 19 14 15 
4 8 11 7 3 
4 12 13 19 18 
4 8 11 14 15 
4 15 14 10 9 
4 7 11 14 16 
4 16 14 10 6 
4 3 7 16 17 
4 17 16 6 2 
4 3 8 15 17 
4 17 15 9 2 
4 15 14 16 17 
4 21 18 15 9 
4 18 19 20 21 
4 0 4 23 22 
4 22 23 11 8 
4 4 13 19 23 
4 23 19 14 11 
4 0 12 18 22 
4 22 18 15 8 
4 22 23 19 18 

CELL_TYPES 29
9 
9 
9 
9 
9 
9 
9 
9 
9 
9 
9 
9 
9 
9 
9 
9 
9 
9 
9 
9 
9 
9 
9 
9 
9 
9 
9 
9 
9 
POINT_DATA 24
SCALARS GMDS_ID int 1
LOOKUP_TABLE default
0 1 2 3 4 5 6 7 8 9 10 11 12 13 14 15 16 17 18 19 20 21 22 23 
SCALARS geom_link_dim int 1
LOOKUP_TABLE default
1 0 0 1 1 0 0 1 2 1 1 2 1 1 1 1 1 1 1 1 1 1 2 2 
SCALARS geom_link_id int 1
LOOKUP_TABLE default
9 -1 -1 10 8 -1 -1 2 15 14 4 7 11 7 3 15 1 16 12 6 5 13 15 7 


CELL_DATA 29
SCALARS GMDS_ID int 1
LOOKUP_TABLE default
1 3 4 5 6 7 9 10 11 13 14 15 16 20 21 22 23 24 25 26 27 28 29 30 31 32 33 34 35 

SCALARS geom_link_dim int 1
LOOKUP_TABLE default
0 0 0 0 0 0 0 0 0 0 0 0 0 0 0 0 0 0 0 0 0 0 0 0 0 0 0 0 0 

SCALARS geom_link_id int 1
LOOKUP_TABLE default
-1 -1 0 0 -1 -1 0 -1 -1 0 -1 0 0 0 0 0 0 0 0 0 -1 -1 -1 -1 -1 -1 -1 -1 -1 

