# vtk DataFile Version 3.0
Generated by GMDS VTK Writer

ASCII
DATASET UNSTRUCTURED_GRID
POINTS 20 float
0 0 0
15 0 0
0 0 5
15 0 5
10 0 0
10 10 0
10 10 5
10 0 5
0 5 0
0 5 5
10 5 5
10 5 0
15 5 5
15 5 0
5 5 0
5 5 5
5 10 5
5 10 0
5 0 0
5 0 5

CELLS 21 105
4 17 16 6 5 
4 0 2 9 8 
4 16 15 10 6 
4 14 15 10 11 
4 4 7 3 1 
4 8 9 15 14 
4 4 7 10 11 
4 11 10 6 5 
4 3 7 10 12 
4 1 3 12 13 
4 1 4 11 13 
4 11 10 12 13 
4 17 14 11 5 
4 14 15 16 17 
4 0 2 19 18 
4 18 19 7 4 
4 2 9 15 19 
4 19 15 10 7 
4 0 8 14 18 
4 18 14 11 4 
4 18 19 15 14 

CELL_TYPES 21
9 
9 
9 
9 
9 
9 
9 
9 
9 
9 
9 
9 
9 
9 
9 
9 
9 
9 
9 
9 
9 
POINT_DATA 20
SCALARS GMDS_ID int 1
LOOKUP_TABLE default
0 3 4 7 8 9 10 11 12 13 14 15 16 17 18 19 20 21 22 23 
SCALARS geom_link_dim int 1
LOOKUP_TABLE default
1 1 1 1 2 1 1 2 1 1 1 1 1 1 1 1 1 1 2 2 
SCALARS geom_link_id int 1
LOOKUP_TABLE default
9 10 8 2 15 14 4 7 11 7 3 15 1 16 12 6 5 13 15 7 


CELL_DATA 21
SCALARS GMDS_ID int 1
LOOKUP_TABLE default
3 5 7 11 13 14 15 16 20 22 24 26 27 28 29 30 31 32 33 34 35 

SCALARS geom_link_dim int 1
LOOKUP_TABLE default
3 3 3 4 3 3 4 3 3 3 3 3 3 3 3 3 3 3 3 3 4 

SCALARS geom_link_id int 1
LOOKUP_TABLE default
5 3 6 1 7 10 1 9 6 4 1 8 1 2 7 7 6 6 1 1 1 

