# vtk DataFile Version 3.0
Generated by GMDS VTK Writer

ASCII
DATASET UNSTRUCTURED_GRID
POINTS 22 float
0 0 0
15 10 0
15 0 0
0 0 5
15 10 5
15 0 5
10 0 0
10 10 0
10 10 5
10 0 5
0 5 0
0 5 5
10 5 5
10 5 0
15 5 5
15 5 0
5 5 0
5 5 5
5 10 5
5 10 0
5 0 0
5 0 5

CELLS 25 125
4 19 18 8 7 
4 0 3 11 10 
4 18 17 12 8 
4 7 8 4 1 
4 16 17 12 13 
4 6 9 5 2 
4 10 11 17 16 
4 6 9 12 13 
4 13 12 8 7 
4 5 9 12 14 
4 14 12 8 4 
4 2 5 14 15 
4 15 14 4 1 
4 2 6 13 15 
4 15 13 7 1 
4 13 12 14 15 
4 19 16 13 7 
4 16 17 18 19 
4 0 3 21 20 
4 20 21 9 6 
4 3 11 17 21 
4 21 17 12 9 
4 0 10 16 20 
4 20 16 13 6 
4 20 21 17 16 

CELL_TYPES 25
9 
9 
9 
9 
9 
9 
9 
9 
9 
9 
9 
9 
9 
9 
9 
9 
9 
9 
9 
9 
9 
9 
9 
9 
9 
POINT_DATA 22
SCALARS GMDS_ID int 1
LOOKUP_TABLE default
0 2 3 4 6 7 8 9 10 11 12 13 14 15 16 17 18 19 20 21 22 23 
SCALARS geom_link_dim int 1
LOOKUP_TABLE default
1 0 1 1 0 1 2 1 1 2 1 1 1 1 1 1 1 1 1 1 2 2 
SCALARS geom_link_id int 1
LOOKUP_TABLE default
9 -1 10 8 -1 2 15 14 4 7 11 7 3 15 1 16 12 6 5 13 15 7 


CELL_DATA 25
SCALARS GMDS_ID int 1
LOOKUP_TABLE default
3 5 7 9 11 13 14 15 16 20 21 22 23 24 25 26 27 28 29 30 31 32 33 34 35 

SCALARS geom_link_dim int 1
LOOKUP_TABLE default
0 0 0 0 0 0 0 0 0 0 0 0 0 0 0 0 0 0 0 0 0 0 0 0 0 

SCALARS geom_link_id int 1
LOOKUP_TABLE default
0 0 0 0 0 0 0 0 0 0 0 0 0 0 0 0 0 0 0 0 0 0 0 0 0 

