# vtk DataFile Version 3.0
Generated by GMDS VTK Writer

ASCII
DATASET UNSTRUCTURED_GRID
POINTS 22 float
0 0 0
15 10 0
15 0 0
0 0 5
15 10 5
15 0 5
0 5 0
0 5 5
15 5 5
15 5 0
5 0 0
5 0 5
5 5 5
5 5 0
5 10 5
5 10 0
10 0 0
10 0 5
10 5 5
10 5 0
10 10 5
10 10 0

CELLS 25 125
4 3 7 12 11 
4 10 13 19 16 
4 18 19 9 8 
4 0 3 11 10 
4 0 3 7 6 
4 12 13 19 18 
4 17 18 8 5 
4 2 5 8 9 
4 9 8 4 1 
4 11 12 18 17 
4 16 17 5 2 
4 10 11 17 16 
4 6 7 12 13 
4 0 6 13 10 
4 10 11 12 13 
4 13 12 14 15 
4 16 19 9 2 
4 16 17 18 19 
4 12 14 20 18 
4 18 20 4 8 
4 14 15 21 20 
4 20 21 1 4 
4 13 15 21 19 
4 19 21 1 9 
4 19 18 20 21 

CELL_TYPES 25
9 
9 
9 
9 
9 
9 
9 
9 
9 
9 
9 
9 
9 
9 
9 
9 
9 
9 
9 
9 
9 
9 
9 
9 
9 
POINT_DATA 22
SCALARS GMDS_ID int 1
LOOKUP_TABLE default
0 2 3 4 6 7 8 9 10 11 12 13 14 15 16 17 18 19 20 21 22 23 
SCALARS geom_link_dim int 1
LOOKUP_TABLE default
1 0 1 1 0 1 1 1 1 1 2 2 1 1 1 1 2 2 1 1 1 1 
SCALARS geom_link_id int 1
LOOKUP_TABLE default
9 -1 10 8 -1 2 11 7 1 16 15 7 6 12 5 13 15 7 3 15 4 14 


CELL_DATA 25
SCALARS GMDS_ID int 1
LOOKUP_TABLE default
0 1 2 3 4 6 7 8 9 10 11 12 13 14 15 19 20 21 22 23 24 25 26 27 28 

SCALARS geom_link_dim int 1
LOOKUP_TABLE default
0 0 0 0 0 0 0 0 0 0 0 0 0 0 0 0 0 0 0 0 0 0 0 0 0 

SCALARS geom_link_id int 1
LOOKUP_TABLE default
0 0 0 0 0 0 0 0 0 0 0 0 0 0 0 0 0 0 0 0 0 0 0 0 0 

