# vtk DataFile Version 3.0
Generated by GMDS VTK Writer

ASCII
DATASET UNSTRUCTURED_GRID
POINTS 22 float
0 0 0
15 10 0
15 0 0
0 0 5
15 10 5
15 0 5
5 0 0
5 10 0
5 10 5
5 0 5
10 0 0
10 10 0
10 10 5
10 0 5
0 5 0
0 5 5
5 5 5
5 5 0
10 5 5
10 5 0
15 5 5
15 5 0

CELLS 25 125
4 11 12 4 1 
4 7 8 12 11 
4 3 9 16 15 
4 0 3 9 6 
4 0 3 15 14 
4 6 9 13 10 
4 10 13 5 2 
4 6 9 16 17 
4 17 16 8 7 
4 0 6 17 14 
4 14 15 16 17 
4 9 13 18 16 
4 16 18 12 8 
4 10 13 18 19 
4 19 18 12 11 
4 6 10 19 17 
4 17 19 11 7 
4 17 16 18 19 
4 5 13 18 20 
4 20 18 12 4 
4 2 5 20 21 
4 21 20 4 1 
4 2 10 19 21 
4 21 19 11 1 
4 19 18 20 21 

CELL_TYPES 25
9 
9 
9 
9 
9 
9 
9 
9 
9 
9 
9 
9 
9 
9 
9 
9 
9 
9 
9 
9 
9 
9 
9 
9 
9 
POINT_DATA 22
SCALARS GMDS_ID int 1
LOOKUP_TABLE default
0 2 3 4 6 7 8 9 10 11 12 13 14 15 16 17 18 19 20 21 22 23 
SCALARS geom_link_dim_0 int 1
LOOKUP_TABLE default
0 0 0 0 0 0 0 0 0 0 0 0 0 0 0 0 0 0 0 0 0 0 
SCALARS geom_link_id_0 int 1
LOOKUP_TABLE default
0 0 0 0 0 0 0 0 0 0 0 0 0 0 0 0 0 0 0 0 0 0 


CELL_DATA 25
SCALARS GMDS_ID int 1
LOOKUP_TABLE default
0 2 9 12 13 17 18 20 21 22 24 25 26 27 28 29 30 31 32 33 34 35 36 37 38 

SCALARS geom_link_dim_0 int 1
LOOKUP_TABLE default
0 0 0 0 0 0 0 0 0 0 0 0 0 0 0 0 0 0 0 0 0 0 0 0 0 

SCALARS geom_link_id_0 int 1
LOOKUP_TABLE default
0 0 0 0 0 0 0 0 0 0 0 0 0 0 0 0 0 0 0 0 0 0 0 0 0 

