# vtk DataFile Version 3.0
Generated by GMDS VTK Writer

ASCII
DATASET UNSTRUCTURED_GRID
POINTS 20 float
0 0 0
15 0 0
0 0 5
15 0 5
5 0 0
5 10 0
5 10 5
5 0 5
0 5 0
0 5 5
5 5 5
5 5 0
15 5 5
15 5 0
10 0 0
10 0 5
10 5 5
10 5 0
10 10 5
10 10 0

CELLS 21 105
4 1 13 17 14 
4 2 7 10 9 
4 16 17 11 10 
4 0 2 9 8 
4 12 13 17 16 
4 15 16 10 7 
4 3 12 16 15 
4 14 15 7 4 
4 0 2 7 4 
4 1 3 15 14 
4 4 7 10 11 
4 11 10 6 5 
4 0 4 11 8 
4 8 9 10 11 
4 1 3 12 13 
4 14 17 11 4 
4 14 15 16 17 
4 18 16 10 6 
4 19 18 6 5 
4 19 17 11 5 
4 17 16 18 19 

CELL_TYPES 21
9 
9 
9 
9 
9 
9 
9 
9 
9 
9 
9 
9 
9 
9 
9 
9 
9 
9 
9 
9 
9 
POINT_DATA 20
SCALARS GMDS_ID int 1
LOOKUP_TABLE default
0 3 4 7 8 9 10 11 12 13 14 15 16 17 18 19 20 21 22 23 
SCALARS geom_link_dim int 1
LOOKUP_TABLE default
1 1 1 1 2 1 1 2 1 1 1 1 1 1 2 2 1 1 1 1 
SCALARS geom_link_id int 1
LOOKUP_TABLE default
9 10 8 2 15 13 5 7 11 7 6 12 1 16 15 7 3 15 4 14 


CELL_DATA 21
SCALARS GMDS_ID int 1
LOOKUP_TABLE default
1 2 3 5 6 7 10 11 12 14 15 16 17 19 22 27 28 30 32 34 35 

SCALARS geom_link_dim int 1
LOOKUP_TABLE default
3 3 4 3 3 3 3 3 3 3 4 3 3 3 3 3 4 3 3 3 3 

SCALARS geom_link_id int 1
LOOKUP_TABLE default
1 6 1 3 8 6 6 7 7 7 1 2 1 10 4 1 1 6 5 1 9 

