# vtk DataFile Version 3.0
Generated by GMDS VTK Writer

ASCII
DATASET UNSTRUCTURED_GRID
POINTS 22 float
0 0 0
0 10 0
15 0 0
0 0 5
0 10 5
15 0 5
5 0 0
5 10 0
5 10 5
5 0 5
0 5 0
0 5 5
5 5 5
5 5 0
15 5 5
15 5 0
10 0 0
10 0 5
10 5 5
10 5 0
10 10 5
10 10 0

CELLS 25 125
4 11 12 8 4 
4 2 15 19 16 
4 3 9 12 11 
4 18 19 13 12 
4 10 11 4 1 
4 0 3 11 10 
4 14 15 19 18 
4 17 18 12 9 
4 1 4 8 7 
4 5 14 18 17 
4 16 17 9 6 
4 0 3 9 6 
4 2 5 17 16 
4 6 9 12 13 
4 13 12 8 7 
4 0 6 13 10 
4 10 13 7 1 
4 10 11 12 13 
4 2 5 14 15 
4 16 19 13 6 
4 16 17 18 19 
4 20 18 12 8 
4 21 20 8 7 
4 21 19 13 7 
4 19 18 20 21 

CELL_TYPES 25
9 
9 
9 
9 
9 
9 
9 
9 
9 
9 
9 
9 
9 
9 
9 
9 
9 
9 
9 
9 
9 
9 
9 
9 
9 
POINT_DATA 22
SCALARS GMDS_ID int 1
LOOKUP_TABLE default
0 1 3 4 5 7 8 9 10 11 12 13 14 15 16 17 18 19 20 21 22 23 
SCALARS geom_link_dim int 1
LOOKUP_TABLE default
1 0 1 1 0 1 2 1 1 2 1 1 1 1 1 1 2 2 1 1 1 1 
SCALARS geom_link_id int 1
LOOKUP_TABLE default
9 -1 10 8 -1 2 15 13 5 7 11 7 6 12 1 16 15 7 3 15 4 14 


CELL_DATA 25
SCALARS GMDS_ID int 1
LOOKUP_TABLE default
0 1 2 3 4 5 6 7 8 10 11 12 14 15 16 17 18 19 22 27 28 30 32 34 35 

SCALARS geom_link_dim int 1
LOOKUP_TABLE default
0 0 0 0 0 0 0 0 0 0 0 0 0 0 0 0 0 0 0 0 0 0 0 0 0 

SCALARS geom_link_id int 1
LOOKUP_TABLE default
0 0 0 0 0 0 0 0 0 0 0 0 0 0 0 0 0 0 0 0 0 0 0 0 0 

