# vtk DataFile Version 3.0
Generated by GMDS VTK Writer

ASCII
DATASET UNSTRUCTURED_GRID
POINTS 20 float
0 0 0
15 0 0
0 0 5
15 0 5
5 0 0
5 10 0
5 10 5
5 0 5
10 0 0
10 10 0
10 10 5
10 0 5
0 5 0
0 5 5
5 5 5
5 5 0
10 5 5
10 5 0
15 5 5
15 5 0

CELLS 21 105
4 5 6 10 9 
4 2 7 14 13 
4 0 2 7 4 
4 0 2 13 12 
4 4 7 11 8 
4 8 11 3 1 
4 4 7 14 15 
4 15 14 6 5 
4 0 4 15 12 
4 12 13 14 15 
4 7 11 16 14 
4 14 16 10 6 
4 8 11 16 17 
4 17 16 10 9 
4 4 8 17 15 
4 15 17 9 5 
4 15 14 16 17 
4 3 11 16 18 
4 1 3 18 19 
4 1 8 17 19 
4 17 16 18 19 

CELL_TYPES 21
9 
9 
9 
9 
9 
9 
9 
9 
9 
9 
9 
9 
9 
9 
9 
9 
9 
9 
9 
9 
9 
POINT_DATA 20
SCALARS GMDS_ID int 1
LOOKUP_TABLE default
0 3 4 7 8 9 10 11 12 13 14 15 16 17 18 19 20 21 22 23 
SCALARS geom_link_dim_0 int 1
LOOKUP_TABLE default
0 0 0 0 0 0 0 0 0 0 0 0 0 0 0 0 0 0 0 0 
SCALARS geom_link_id_0 int 1
LOOKUP_TABLE default
0 0 0 0 0 0 0 0 0 0 0 0 0 0 0 0 0 0 0 0 


CELL_DATA 21
SCALARS GMDS_ID int 1
LOOKUP_TABLE default
2 9 12 13 17 18 20 21 22 24 25 26 27 28 29 30 31 32 34 36 38 

SCALARS geom_link_dim_0 int 1
LOOKUP_TABLE default
0 0 0 0 0 0 0 0 0 0 0 0 0 0 0 0 0 0 0 0 0 

SCALARS geom_link_id_0 int 1
LOOKUP_TABLE default
0 0 0 0 0 0 0 0 0 0 0 0 0 0 0 0 0 0 0 0 0 

