# vtk DataFile Version 3.0
Generated by GMDS VTK Writer

ASCII
DATASET UNSTRUCTURED_GRID
POINTS 20 float
0 0 0
15 0 0
0 0 5
15 0 5
0 5 0
0 5 5
15 5 5
15 5 0
5 0 0
5 0 5
5 5 5
5 5 0
5 10 5
5 10 0
10 0 0
10 0 5
10 5 5
10 5 0
10 10 5
10 10 0

CELLS 21 105
4 2 5 10 9 
4 8 11 17 14 
4 16 17 7 6 
4 0 2 9 8 
4 0 2 5 4 
4 10 11 17 16 
4 15 16 6 3 
4 1 3 6 7 
4 9 10 16 15 
4 14 15 3 1 
4 8 9 15 14 
4 4 5 10 11 
4 0 4 11 8 
4 8 9 10 11 
4 11 10 12 13 
4 14 17 7 1 
4 14 15 16 17 
4 10 12 18 16 
4 12 13 19 18 
4 11 13 19 17 
4 17 16 18 19 

CELL_TYPES 21
9 
9 
9 
9 
9 
9 
9 
9 
9 
9 
9 
9 
9 
9 
9 
9 
9 
9 
9 
9 
9 
POINT_DATA 20
SCALARS GMDS_ID int 1
LOOKUP_TABLE default
0 3 4 7 8 9 10 11 12 13 14 15 16 17 18 19 20 21 22 23 
SCALARS geom_link_dim int 1
LOOKUP_TABLE default
1 1 1 1 1 1 1 1 2 2 1 1 1 1 2 2 1 1 1 1 
SCALARS geom_link_id int 1
LOOKUP_TABLE default
9 10 8 2 11 7 1 16 15 7 6 12 5 13 15 7 3 15 4 14 


CELL_DATA 21
SCALARS GMDS_ID int 1
LOOKUP_TABLE default
1 2 4 5 6 8 9 10 12 13 14 15 17 19 26 27 28 29 31 33 35 

SCALARS geom_link_dim int 1
LOOKUP_TABLE default
0 0 0 0 0 0 0 0 0 0 0 0 0 0 0 0 0 0 0 0 0 

SCALARS geom_link_id int 1
LOOKUP_TABLE default
0 0 0 0 0 0 0 0 0 0 0 0 0 0 0 0 0 0 0 0 0 

