# vtk DataFile Version 3.0
Generated by GMDS VTK Writer

ASCII
DATASET UNSTRUCTURED_GRID
POINTS 27 float
1 0 0
1 1 0
1 0 2
1 2 0
1 2 2
1 1 2
2 1 2
0 1 2
2 1 0
0 1 0
2 2 0
0 0 0
0 2 0
0 2 2
0 0 2
2 2 2
2 0 2
2 0 0
0 0 1
0 1 1
1 0 1
1 1 1
1 2 1
0 2 1
2 1 1
2 2 1
2 0 1

CELLS 8 72
8 18 19 21 20 14 7 5 2 
8 20 26 24 21 0 17 8 1 
8 21 24 25 22 1 8 10 3 
8 19 23 22 21 7 13 4 5 
8 19 18 20 21 9 11 0 1 
8 23 19 21 22 12 9 1 3 
8 26 20 21 24 16 2 5 6 
8 24 21 22 25 6 5 4 15 

CELL_TYPES 8
12 
12 
12 
12 
12 
12 
12 
12 
POINT_DATA 27
SCALARS GMDS_ID int 1
LOOKUP_TABLE default
0 1 2 3 4 5 6 7 8 9 10 11 12 13 14 15 16 17 18 19 20 21 22 23 24 25 26 
SCALARS blocking_topo_id int 1
LOOKUP_TABLE default
154 156 155 158 159 157 30 29 28 27 2 0 1 5 4 6 7 3 199 200 201 202 203 204 205 206 207 
SCALARS blocking_topo_dim int 1
LOOKUP_TABLE default
0 0 0 0 0 0 0 0 0 0 0 0 0 0 0 0 0 0 0 0 0 0 0 0 0 0 0 
SCALARS blocking_geom_id int 1
LOOKUP_TABLE default
5 7 5 16 9 2 20 11 6 3 14 -1 10 9 8 13 12 11 1 2 4 -1 1 15 5 12 21 
SCALARS blocking_geom_dim int 1
LOOKUP_TABLE default
0 0 1 1 1 2 1 1 1 0 0 4 0 0 0 0 0 0 0 0 0 4 2 1 2 1 1 


CELL_DATA 8
SCALARS GMDS_ID int 1
LOOKUP_TABLE default
0 1 2 3 4 5 6 7 

SCALARS blocking_topo_id int 1
LOOKUP_TABLE default
1359 271 1360 26 1485 1486 1487 1488 

SCALARS blocking_topo_dim int 1
LOOKUP_TABLE default
3 3 3 3 3 3 3 3 

SCALARS blocking_geom_id int 1
LOOKUP_TABLE default
-1 -1 -1 -1 -1 -1 -1 -1 

SCALARS blocking_geom_dim int 1
LOOKUP_TABLE default
4 4 4 4 4 4 4 4 

