# vtk DataFile Version 3.0
Generated by GMDS VTK Writer

ASCII
DATASET UNSTRUCTURED_GRID
POINTS 18 float
2 1 2
0 1 2
2 1 0
0 1 0
2 2 0
0 0 0
0 2 0
0 2 2
0 0 2
2 2 2
2 0 2
2 0 0
1 0 0
1 0 2
1 1 0
1 1 2
1 2 0
1 2 2

CELLS 4 36
8 12 13 15 14 11 10 0 2 
8 14 16 17 15 3 6 7 1 
8 13 12 14 15 8 5 3 1 
8 16 14 15 17 4 2 0 9 

CELL_TYPES 4
12 
12 
12 
12 
POINT_DATA 18
SCALARS GMDS_ID int 1
LOOKUP_TABLE default
0 1 2 3 4 5 6 7 8 9 10 11 12 13 14 15 16 17 
SCALARS blocking_topo_id int 1
LOOKUP_TABLE default
30 29 28 27 2 0 1 5 4 6 7 3 154 155 156 157 158 159 
SCALARS blocking_topo_dim int 1
LOOKUP_TABLE default
0 0 0 0 0 0 0 0 0 0 0 0 0 0 0 0 0 0 
SCALARS blocking_geom_id int 1
LOOKUP_TABLE default
20 11 6 3 14 -1 10 9 8 13 12 11 5 5 7 2 16 9 
SCALARS blocking_geom_dim int 1
LOOKUP_TABLE default
1 1 1 0 0 4 0 0 0 0 0 0 0 1 0 2 1 1 


CELL_DATA 4
SCALARS GMDS_ID int 1
LOOKUP_TABLE default
0 1 2 3 

SCALARS blocking_topo_id int 1
LOOKUP_TABLE default
271 26 1359 1360 

SCALARS blocking_topo_dim int 1
LOOKUP_TABLE default
3 3 3 3 

SCALARS blocking_geom_id int 1
LOOKUP_TABLE default
-1 -1 -1 -1 

SCALARS blocking_geom_dim int 1
LOOKUP_TABLE default
4 4 4 4 

