# vtk DataFile Version 3.0
Generated by GMDS VTK Writer

ASCII
DATASET UNSTRUCTURED_GRID
POINTS 30 float
2.5 5 -2
2.5 5 2
-2.5 5 -2
-5 5 -2
-2.5 5 2
5 5 -2
5 5 2
-5 5 2
2.5 10 -2
2.5 10 2
2.5 7.5 -2
1.76326288537443 6.76326288537443 2
2.5 -5 -2
2.5 5 2
5 7.5 2
5 7.5 -2
-1.76326288537443 6.76326288537443 2
-2.5 7.5 -2
-5 7.5 -2
-5 7.5 2
-2.5 -5 -2
-2.5 10 -2
-2.5 -5 2
-2.5 10 2
-5 -5 2
5 -5 2
5 -5 -2
-5 -5 -2
5 10 2
5 10 -2

CELLS 8 72
8 0 1 11 10 5 6 14 15 
8 0 1 13 12 2 4 22 20 
8 1 0 10 11 4 2 17 16 
8 2 3 18 17 4 7 19 16 
8 3 2 20 27 7 4 22 24 
8 5 26 12 0 6 25 13 1 
8 8 9 11 10 21 23 16 17 
8 9 8 10 11 28 29 15 14 

CELL_TYPES 8
12 
12 
12 
12 
12 
12 
12 
12 
POINT_DATA 30
SCALARS GMDS_ID int 1
LOOKUP_TABLE default
0 1 2 3 4 5 6 7 8 9 10 11 12 13 14 15 16 17 18 19 20 21 22 23 24 25 26 27 28 29 
SCALARS blocking_topo_id int 1
LOOKUP_TABLE default
235 237 234 238 236 241 240 239 211 212 208 207 210 209 101 100 98 96 97 99 30 28 29 27 4 7 3 0 6 2 
SCALARS blocking_topo_dim int 1
LOOKUP_TABLE default
0 0 0 0 0 0 0 0 0 0 0 0 0 0 0 0 0 0 0 0 0 0 0 0 0 0 0 0 0 0 
SCALARS blocking_geom_id int 1
LOOKUP_TABLE default
4 11 1 8 2 8 9 9 -1 -1 5 11 3 11 -1 -1 11 5 -1 -1 3 -1 6 -1 5 8 7 6 -1 -1 
SCALARS blocking_geom_dim int 1
LOOKUP_TABLE default
0 1 0 1 0 1 1 1 4 4 2 1 1 1 4 4 1 2 4 4 1 4 1 4 0 0 0 0 4 4 


CELL_DATA 8
SCALARS GMDS_ID int 1
LOOKUP_TABLE default
0 1 2 3 4 5 6 7 

SCALARS blocking_topo_id int 1
LOOKUP_TABLE default
2233 3218 3144 3219 1108 3220 3145 26 

SCALARS blocking_topo_dim int 1
LOOKUP_TABLE default
3 3 3 3 3 3 3 3 

SCALARS blocking_geom_id int 1
LOOKUP_TABLE default
-1 -1 -1 -1 -1 -1 -1 -1 

SCALARS blocking_geom_dim int 1
LOOKUP_TABLE default
4 4 4 4 4 4 4 4 

