# vtk DataFile Version 3.0
Generated by GMDS VTK Writer

ASCII
DATASET UNSTRUCTURED_GRID
POINTS 8 float
5 10 2
-5 10 2
-5 10 -2
-5 -5 2
5 -5 2
5 -5 -2
-5 -5 -2
5 10 -2

CELLS 1 9
8 0 7 2 1 4 5 6 3 

CELL_TYPES 1
12 
POINT_DATA 8
SCALARS GMDS_ID int 1
LOOKUP_TABLE default
0 1 2 3 4 5 6 7 
SCALARS blocking_topo_id int 1
LOOKUP_TABLE default
6 5 1 4 7 3 0 2 
SCALARS blocking_topo_dim int 1
LOOKUP_TABLE default
0 0 0 0 0 0 0 0 
SCALARS blocking_geom_id int 1
LOOKUP_TABLE default
-1 -1 -1 5 8 7 6 -1 
SCALARS blocking_geom_dim int 1
LOOKUP_TABLE default
4 4 4 0 0 0 0 4 


CELL_DATA 1
SCALARS GMDS_ID int 1
LOOKUP_TABLE default
0 

SCALARS blocking_topo_id int 1
LOOKUP_TABLE default
26 

SCALARS blocking_topo_dim int 1
LOOKUP_TABLE default
3 

SCALARS blocking_geom_id int 1
LOOKUP_TABLE default
-1 

SCALARS blocking_geom_dim int 1
LOOKUP_TABLE default
4 

