# vtk DataFile Version 3.0
Generated by GMDS VTK Writer

ASCII
DATASET UNSTRUCTURED_GRID
POINTS 12 float
2 2 0
0 0 0
0 2 0
0 2 2
0 0 2
2 2 2
2 0 2
2 0 0
0 1 0
2 1 0
0 1 2
2 1 2

CELLS 2 18
8 8 9 11 10 2 0 5 3 
8 9 8 10 11 7 1 4 6 

CELL_TYPES 2
12 
12 
POINT_DATA 12
SCALARS GMDS_ID int 1
LOOKUP_TABLE default
0 1 2 3 4 5 6 7 8 9 10 11 
SCALARS blocking_topo_id int 1
LOOKUP_TABLE default
2 0 1 5 4 6 7 3 27 28 29 30 
SCALARS blocking_topo_dim int 1
LOOKUP_TABLE default
0 0 0 0 0 0 0 0 0 0 0 0 
SCALARS blocking_geom_id int 1
LOOKUP_TABLE default
14 -1 10 9 8 13 12 11 3 6 11 20 
SCALARS blocking_geom_dim int 1
LOOKUP_TABLE default
0 4 0 0 0 0 0 0 0 1 1 1 


CELL_DATA 2
SCALARS GMDS_ID int 1
LOOKUP_TABLE default
0 1 

SCALARS blocking_topo_id int 1
LOOKUP_TABLE default
26 271 

SCALARS blocking_topo_dim int 1
LOOKUP_TABLE default
3 3 

SCALARS blocking_geom_id int 1
LOOKUP_TABLE default
-1 -1 

SCALARS blocking_geom_dim int 1
LOOKUP_TABLE default
4 4 

