# vtk DataFile Version 3.0
Generated by GMDS VTK Writer

ASCII
DATASET UNSTRUCTURED_GRID
POINTS 26 float
0 1 1
0 0 1
2 1 1
2 0 1
1 1 1
1 2 1
1 0 1
0 2 1
2 2 1
1 2 2
1 2 0
1 0 0
1 1 0
1 0 2
1 1 2
2 1 2
0 1 2
2 1 0
0 1 0
2 2 0
0 2 0
0 2 2
0 0 2
2 2 2
2 0 2
2 0 0

CELLS 7 63
8 1 0 4 6 22 16 14 13 
8 2 3 25 17 4 6 11 12 
8 3 2 15 24 6 4 14 13 
8 4 2 15 14 5 8 23 9 
8 2 4 12 17 8 5 10 19 
8 4 5 9 14 0 7 21 16 
8 5 4 12 10 7 0 18 20 

CELL_TYPES 7
12 
12 
12 
12 
12 
12 
12 
POINT_DATA 26
SCALARS GMDS_ID int 1
LOOKUP_TABLE default
0 1 2 3 4 5 6 7 8 9 10 11 12 13 14 15 16 17 18 19 20 21 22 23 24 25 
SCALARS blocking_topo_id int 1
LOOKUP_TABLE default
200 199 205 207 202 203 201 204 206 159 158 154 156 155 157 30 29 28 27 2 1 5 4 6 7 3 
SCALARS blocking_topo_dim int 1
LOOKUP_TABLE default
0 0 0 0 0 0 0 0 0 0 0 0 0 0 0 0 0 0 0 0 0 0 0 0 0 0 
SCALARS blocking_geom_id int 1
LOOKUP_TABLE default
2 1 5 21 6 1 4 15 12 9 16 5 7 5 2 20 11 6 3 14 10 9 8 13 12 11 
SCALARS blocking_geom_dim int 1
LOOKUP_TABLE default
0 0 2 1 0 2 0 1 1 1 1 0 0 1 2 1 1 1 0 0 0 0 0 0 0 0 


CELL_DATA 7
SCALARS GMDS_ID int 1
LOOKUP_TABLE default
0 1 2 3 4 5 6 

SCALARS blocking_topo_id int 1
LOOKUP_TABLE default
1359 271 1487 1488 1360 26 1486 

SCALARS blocking_topo_dim int 1
LOOKUP_TABLE default
3 3 3 3 3 3 3 

SCALARS blocking_geom_id int 1
LOOKUP_TABLE default
1 1 1 1 1 1 1 

SCALARS blocking_geom_dim int 1
LOOKUP_TABLE default
3 3 3 3 3 3 3 

