# vtk DataFile Version 3.0
Generated by GMDS VTK Writer

ASCII
DATASET UNSTRUCTURED_GRID
POINTS 8 float
5 10 2
-5 10 2
-5 10 -2
-5 -5 2
5 -5 2
5 -5 -2
-5 -5 -2
5 10 -2

CELLS 12 36
2 7 0
2 1 0
2 2 1
2 6 3
2 3 4
2 3 1
2 5 4
2 6 5
2 6 2
2 0 4
2 7 5
2 2 7

CELL_TYPES 12
3 
3 
3 
3 
3 
3 
3 
3 
3 
3 
3 
3 
POINT_DATA 8
SCALARS GMDS_ID int 1
LOOKUP_TABLE default
0 1 2 3 4 5 6 7 
SCALARS blocking_topo_id int 1
LOOKUP_TABLE default
6 5 1 4 7 3 0 2 
SCALARS blocking_topo_dim int 1
LOOKUP_TABLE default
0 0 0 0 0 0 0 0 
SCALARS blocking_geom_id int 1
LOOKUP_TABLE default
-1 -1 -1 5 8 7 6 -1 
SCALARS blocking_geom_dim int 1
LOOKUP_TABLE default
4 4 4 0 0 0 0 4 


CELL_DATA 12
SCALARS GMDS_ID int 1
LOOKUP_TABLE default
0 1 2 3 4 5 6 7 8 9 10 11 

SCALARS blocking_topo_id int 1
LOOKUP_TABLE default
16 15 14 12 19 13 18 11 8 17 10 9 

SCALARS blocking_topo_dim int 1
LOOKUP_TABLE default
1 1 1 1 1 1 1 1 1 1 1 1 

SCALARS blocking_geom_id int 1
LOOKUP_TABLE default
-1 -1 -1 5 6 -1 7 3 -1 -1 -1 -1 

SCALARS blocking_geom_dim int 1
LOOKUP_TABLE default
4 4 4 1 1 4 1 1 4 4 4 4 

