# vtk DataFile Version 3.0
Generated by GMDS VTK Writer

ASCII
DATASET UNSTRUCTURED_GRID
POINTS 27 float
1 0 0
1 1 0
1 0 2
1 2 0
1 2 2
1 1 2
2 1 2
0 1 2
2 1 0
0 1 0
2 2 0
0 0 0
0 2 0
0 2 2
0 0 2
2 2 2
2 0 2
2 0 0
0 0 1
0 1 1
1 0 1
1 1 1
1 2 1
0 2 1
2 1 1
2 2 1
2 0 1

CELLS 54 162
2 0 1
2 0 20
2 3 22
2 5 4
2 1 3
2 1 21
2 2 5
2 13 4
2 15 4
2 12 3
2 10 3
2 6 5
2 7 5
2 9 1
2 8 1
2 14 2
2 16 2
2 11 0
2 17 0
2 8 24
2 9 19
2 16 6
2 15 6
2 14 7
2 13 7
2 17 8
2 10 8
2 11 9
2 12 9
2 11 18
2 12 23
2 17 26
2 10 25
2 14 18
2 7 19
2 2 20
2 5 21
2 4 22
2 13 23
2 6 24
2 15 25
2 16 26
2 18 19
2 18 20
2 19 21
2 19 23
2 20 21
2 20 26
2 21 22
2 21 24
2 22 23
2 22 25
2 24 25
2 24 26

CELL_TYPES 54
3 
3 
3 
3 
3 
3 
3 
3 
3 
3 
3 
3 
3 
3 
3 
3 
3 
3 
3 
3 
3 
3 
3 
3 
3 
3 
3 
3 
3 
3 
3 
3 
3 
3 
3 
3 
3 
3 
3 
3 
3 
3 
3 
3 
3 
3 
3 
3 
3 
3 
3 
3 
3 
3 
POINT_DATA 27
SCALARS GMDS_ID int 1
LOOKUP_TABLE default
0 1 2 3 4 5 6 7 8 9 10 11 12 13 14 15 16 17 18 19 20 21 22 23 24 25 26 
SCALARS blocking_topo_id int 1
LOOKUP_TABLE default
154 156 155 158 159 157 30 29 28 27 2 0 1 5 4 6 7 3 199 200 201 202 203 204 205 206 207 
SCALARS blocking_topo_dim int 1
LOOKUP_TABLE default
0 0 0 0 0 0 0 0 0 0 0 0 0 0 0 0 0 0 0 0 0 0 0 0 0 0 0 
SCALARS blocking_geom_id int 1
LOOKUP_TABLE default
5 7 5 16 9 2 20 11 6 3 14 -1 10 9 8 13 12 11 1 2 4 -1 1 15 5 12 21 
SCALARS blocking_geom_dim int 1
LOOKUP_TABLE default
0 0 1 1 1 2 1 1 1 0 0 4 0 0 0 0 0 0 0 0 0 4 2 1 2 1 1 


CELL_DATA 54
SCALARS GMDS_ID int 1
LOOKUP_TABLE default
0 1 2 3 4 5 6 7 8 9 10 11 12 13 14 15 16 17 18 19 20 21 22 23 24 25 26 27 28 29 30 31 32 33 34 35 36 37 38 39 40 41 42 43 44 45 46 47 48 49 50 51 52 53 

SCALARS blocking_topo_id int 1
LOOKUP_TABLE default
161 160 166 165 164 163 162 15 1352 9 1351 155 34 31 154 19 1350 11 1349 33 32 17 266 13 265 10 264 8 263 12 14 18 16 1473 185 199 200 201 1474 186 1475 1476 208 209 210 211 212 213 214 215 216 217 218 219 

SCALARS blocking_topo_dim int 1
LOOKUP_TABLE default
1 1 1 1 1 1 1 1 1 1 1 1 1 1 1 1 1 1 1 1 1 1 1 1 1 1 1 1 1 1 1 1 1 1 1 1 1 1 1 1 1 1 1 1 1 1 1 1 1 1 1 1 1 1 

SCALARS blocking_geom_id int 1
LOOKUP_TABLE default
7 4 -1 -1 -1 -1 -1 9 9 16 16 -1 -1 14 -1 5 5 -1 17 -1 19 20 20 11 11 6 6 -1 13 -1 15 21 12 18 -1 -1 -1 -1 15 -1 12 21 10 8 -1 -1 -1 -1 -1 -1 -1 -1 -1 -1 

SCALARS blocking_geom_dim int 1
LOOKUP_TABLE default
1 1 4 4 4 4 4 1 1 1 1 4 4 1 4 1 1 4 1 4 1 1 1 1 1 1 1 4 1 4 1 1 1 1 4 4 4 4 1 4 1 1 1 1 4 4 4 4 4 4 4 4 4 4 

