# vtk DataFile Version 3.0
Generated by GMDS VTK Writer

ASCII
DATASET UNSTRUCTURED_GRID
POINTS 12 float
2 2 0
0 0 0
0 2 0
0 2 2
0 0 2
2 2 2
2 0 2
2 0 0
0 1 0
2 1 0
0 1 2
2 1 2

CELLS 20 60
2 2 0
2 1 4
2 1 8
2 2 3
2 4 10
2 4 6
2 3 5
2 6 11
2 7 6
2 0 5
2 7 9
2 1 7
2 2 8
2 0 9
2 3 10
2 5 11
2 8 9
2 8 10
2 9 11
2 10 11

CELL_TYPES 20
3 
3 
3 
3 
3 
3 
3 
3 
3 
3 
3 
3 
3 
3 
3 
3 
3 
3 
3 
3 
POINT_DATA 12
SCALARS GMDS_ID int 1
LOOKUP_TABLE default
0 1 2 3 4 5 6 7 8 9 10 11 
SCALARS blocking_topo_id int 1
LOOKUP_TABLE default
2 0 1 5 4 6 7 3 27 28 29 30 
SCALARS blocking_topo_dim int 1
LOOKUP_TABLE default
0 0 0 0 0 0 0 0 0 0 0 0 
SCALARS blocking_geom_id int 1
LOOKUP_TABLE default
14 -1 10 9 8 13 12 11 3 6 11 20 
SCALARS blocking_geom_dim int 1
LOOKUP_TABLE default
0 4 0 0 0 0 0 0 0 1 1 1 


CELL_DATA 20
SCALARS GMDS_ID int 1
LOOKUP_TABLE default
0 1 2 3 4 5 6 7 8 9 10 11 12 13 14 15 16 17 18 19 

SCALARS blocking_topo_id int 1
LOOKUP_TABLE default
9 12 8 14 13 19 15 17 18 16 10 11 263 264 265 266 31 32 33 34 

SCALARS blocking_topo_dim int 1
LOOKUP_TABLE default
1 1 1 1 1 1 1 1 1 1 1 1 1 1 1 1 1 1 1 1 

SCALARS blocking_geom_id int 1
LOOKUP_TABLE default
16 -1 -1 15 11 5 9 20 21 12 6 -1 13 6 11 20 -1 -1 -1 -1 

SCALARS blocking_geom_dim int 1
LOOKUP_TABLE default
1 4 4 1 1 1 1 1 1 1 1 4 1 1 1 1 4 4 4 4 

