# vtk DataFile Version 3.0
Generated by GMDS VTK Writer

ASCII
DATASET UNSTRUCTURED_GRID
POINTS 30 float
2.5 5 -2
2.5 5 2
-2.5 5 -2
-5 5 -2
-2.5 5 2
5 5 -2
5 5 2
-5 5 2
2.5 10 -2
2.5 10 2
2.5 7.5 -2
1.76326288537443 6.76326288537443 2
2.5 -5 -2
2.5 5 2
5 7.5 2
5 7.5 -2
-1.76326288537443 6.76326288537443 2
-2.5 7.5 -2
-5 7.5 -2
-5 7.5 2
-2.5 -5 -2
-2.5 10 -2
-2.5 -5 2
-2.5 10 2
-5 -5 2
5 -5 2
5 -5 -2
-5 -5 -2
5 10 2
5 10 -2

CELLS 59 177
2 0 1
2 2 3
2 2 4
2 2 0
2 26 5
2 15 5
2 25 6
2 14 6
2 24 7
2 19 7
2 27 3
2 18 3
2 13 1
2 11 1
2 16 4
2 22 4
2 10 0
2 12 0
2 20 2
2 17 2
2 8 9
2 10 8
2 11 10
2 11 9
2 13 12
2 20 12
2 26 12
2 22 13
2 6 5
2 25 13
2 17 10
2 1 6
2 15 10
2 14 11
2 0 5
2 16 11
2 3 7
2 15 14
2 4 7
2 17 16
2 18 19
2 4 1
2 16 19
2 17 18
2 28 14
2 21 17
2 22 20
2 23 21
2 23 16
2 27 20
2 27 24
2 26 25
2 29 15
2 24 22
2 28 9
2 29 28
2 21 8
2 23 9
2 29 8

CELL_TYPES 59
3 
3 
3 
3 
3 
3 
3 
3 
3 
3 
3 
3 
3 
3 
3 
3 
3 
3 
3 
3 
3 
3 
3 
3 
3 
3 
3 
3 
3 
3 
3 
3 
3 
3 
3 
3 
3 
3 
3 
3 
3 
3 
3 
3 
3 
3 
3 
3 
3 
3 
3 
3 
3 
3 
3 
3 
3 
3 
3 
POINT_DATA 30
SCALARS GMDS_ID int 1
LOOKUP_TABLE default
0 1 2 3 4 5 6 7 8 9 10 11 12 13 14 15 16 17 18 19 20 21 22 23 24 25 26 27 28 29 
SCALARS blocking_topo_id int 1
LOOKUP_TABLE default
235 237 234 238 236 241 240 239 211 212 208 207 210 209 101 100 98 96 97 99 30 28 29 27 4 7 3 0 6 2 
SCALARS blocking_topo_dim int 1
LOOKUP_TABLE default
0 0 0 0 0 0 0 0 0 0 0 0 0 0 0 0 0 0 0 0 0 0 0 0 0 0 0 0 0 0 
SCALARS blocking_geom_id int 1
LOOKUP_TABLE default
4 11 1 8 2 8 9 9 -1 -1 5 11 3 11 -1 -1 11 5 -1 -1 3 -1 6 -1 5 8 7 6 -1 -1 
SCALARS blocking_geom_dim int 1
LOOKUP_TABLE default
0 1 0 1 0 1 1 1 4 4 2 1 1 1 4 4 1 2 4 4 1 4 1 4 0 0 0 0 4 4 


CELL_DATA 59
SCALARS GMDS_ID int 1
LOOKUP_TABLE default
0 1 2 3 4 5 6 7 8 9 10 11 12 13 14 15 16 17 18 19 20 21 22 23 24 25 26 27 28 29 30 31 32 33 34 35 36 37 38 39 40 41 42 43 44 45 46 47 48 49 50 51 52 53 54 55 56 57 58 

SCALARS blocking_topo_id int 1
LOOKUP_TABLE default
245 244 243 242 2224 3209 2225 3208 2223 3207 2222 3206 214 235 211 97 234 216 96 210 219 217 213 215 218 1103 3135 1102 251 3134 104 249 214 213 246 107 250 108 248 103 105 247 106 102 17 33 34 31 32 11 12 18 10 19 3137 16 1101 1100 3136 

SCALARS blocking_topo_dim int 1
LOOKUP_TABLE default
1 1 1 1 1 1 1 1 1 1 1 1 1 1 1 1 1 1 1 1 1 1 1 1 1 1 1 1 1 1 1 1 1 1 1 1 1 1 1 1 1 1 1 1 1 1 1 1 1 1 1 1 1 1 1 1 1 1 1 

SCALARS blocking_geom_id int 1
LOOKUP_TABLE default
-1 -1 -1 4 -1 -1 -1 -1 -1 -1 -1 -1 11 11 11 -1 -1 -1 -1 -1 -1 -1 -1 -1 -1 3 3 6 -1 6 -1 -1 -1 -1 -1 11 -1 -1 -1 -1 -1 10 -1 -1 -1 -1 -1 -1 -1 3 5 7 -1 6 -1 -1 -1 -1 -1 

SCALARS blocking_geom_dim int 1
LOOKUP_TABLE default
4 4 4 1 4 4 4 4 4 4 4 4 1 1 1 4 4 4 4 4 4 4 4 4 4 1 1 1 4 1 4 4 4 4 4 1 4 4 4 4 4 1 4 4 4 4 4 4 4 1 1 1 4 1 4 4 4 4 4 

