# vtk DataFile Version 3.0
Generated by GMDS VTK Writer

ASCII
DATASET UNSTRUCTURED_GRID
POINTS 18 float
2 1 2
0 1 2
2 1 0
0 1 0
2 2 0
0 0 0
0 2 0
0 2 2
0 0 2
2 2 2
2 0 2
2 0 0
1 0 0
1 0 2
1 1 0
1 1 2
1 2 0
1 2 2

CELLS 33 99
2 2 0
2 1 15
2 3 1
2 3 14
2 10 0
2 9 0
2 8 1
2 7 1
2 11 2
2 4 2
2 5 3
2 6 3
2 6 16
2 5 8
2 6 7
2 8 13
2 7 17
2 11 10
2 4 9
2 5 12
2 11 12
2 10 13
2 2 14
2 0 15
2 4 16
2 9 17
2 12 13
2 12 14
2 13 15
2 14 15
2 14 16
2 15 17
2 16 17

CELL_TYPES 33
3 
3 
3 
3 
3 
3 
3 
3 
3 
3 
3 
3 
3 
3 
3 
3 
3 
3 
3 
3 
3 
3 
3 
3 
3 
3 
3 
3 
3 
3 
3 
3 
3 
POINT_DATA 18
SCALARS GMDS_ID int 1
LOOKUP_TABLE default
0 1 2 3 4 5 6 7 8 9 10 11 12 13 14 15 16 17 
SCALARS blocking_topo_id int 1
LOOKUP_TABLE default
30 29 28 27 2 0 1 5 4 6 7 3 154 155 156 157 158 159 
SCALARS blocking_topo_dim int 1
LOOKUP_TABLE default
0 0 0 0 0 0 0 0 0 0 0 0 0 0 0 0 0 0 
SCALARS blocking_geom_id int 1
LOOKUP_TABLE default
20 11 6 3 14 -1 10 9 8 13 12 11 5 5 7 2 16 9 
SCALARS blocking_geom_dim int 1
LOOKUP_TABLE default
1 1 1 0 0 4 0 0 0 0 0 0 0 1 0 2 1 1 


CELL_DATA 33
SCALARS GMDS_ID int 1
LOOKUP_TABLE default
0 1 2 3 4 5 6 7 8 9 10 11 12 13 14 15 16 17 18 19 20 21 22 23 24 25 26 27 28 29 30 31 32 

SCALARS blocking_topo_id int 1
LOOKUP_TABLE default
33 34 32 31 17 266 13 265 10 264 8 263 9 12 14 19 15 18 16 11 1349 1350 154 155 1351 1352 160 161 162 163 164 165 166 

SCALARS blocking_topo_dim int 1
LOOKUP_TABLE default
1 1 1 1 1 1 1 1 1 1 1 1 1 1 1 1 1 1 1 1 1 1 1 1 1 1 1 1 1 1 1 1 1 

SCALARS blocking_geom_id int 1
LOOKUP_TABLE default
-1 -1 -1 14 20 20 11 11 6 6 -1 13 16 -1 15 5 9 21 12 -1 17 5 -1 -1 16 9 -1 7 -1 -1 -1 -1 -1 

SCALARS blocking_geom_dim int 1
LOOKUP_TABLE default
4 4 4 1 1 1 1 1 1 1 4 1 1 4 1 1 1 1 1 4 1 1 4 4 1 1 4 1 4 4 4 4 4 

