# vtk DataFile Version 3.0
Generated by GMDS VTK Writer

ASCII
DATASET UNSTRUCTURED_GRID
POINTS 26 float
0 1 1
0 0 1
2 1 1
2 0 1
1 1 1
1 2 1
1 0 1
0 2 1
2 2 1
1 2 2
1 2 0
1 0 0
1 1 0
1 0 2
1 1 2
2 1 2
0 1 2
2 1 0
0 1 0
2 2 0
0 2 0
0 2 2
0 0 2
2 2 2
2 0 2
2 0 0

CELLS 51 153
2 1 0
2 2 3
2 4 2
2 4 5
2 6 3
2 6 4
2 0 7
2 0 4
2 1 6
2 25 3
2 24 3
2 19 8
2 23 8
2 15 2
2 17 2
2 2 8
2 20 7
2 21 7
2 5 8
2 9 5
2 10 5
2 12 4
2 14 4
2 11 6
2 13 6
2 5 7
2 16 0
2 18 0
2 22 1
2 11 12
2 14 9
2 12 10
2 13 14
2 21 9
2 23 9
2 20 10
2 19 10
2 15 14
2 16 14
2 18 12
2 17 12
2 22 13
2 24 13
2 25 11
2 24 15
2 23 15
2 22 16
2 21 16
2 25 17
2 19 17
2 20 18

CELL_TYPES 51
3 
3 
3 
3 
3 
3 
3 
3 
3 
3 
3 
3 
3 
3 
3 
3 
3 
3 
3 
3 
3 
3 
3 
3 
3 
3 
3 
3 
3 
3 
3 
3 
3 
3 
3 
3 
3 
3 
3 
3 
3 
3 
3 
3 
3 
3 
3 
3 
3 
3 
3 
POINT_DATA 26
SCALARS GMDS_ID int 1
LOOKUP_TABLE default
0 1 2 3 4 5 6 7 8 9 10 11 12 13 14 15 16 17 18 19 20 21 22 23 24 25 
SCALARS blocking_topo_id int 1
LOOKUP_TABLE default
200 199 205 207 202 203 201 204 206 159 158 154 156 155 157 30 29 28 27 2 1 5 4 6 7 3 
SCALARS blocking_topo_dim int 1
LOOKUP_TABLE default
0 0 0 0 0 0 0 0 0 0 0 0 0 0 0 0 0 0 0 0 0 0 0 0 0 0 
SCALARS blocking_geom_id int 1
LOOKUP_TABLE default
2 1 5 21 6 1 4 15 12 9 16 5 7 5 2 20 11 6 3 14 10 9 8 13 12 11 
SCALARS blocking_geom_dim int 1
LOOKUP_TABLE default
0 0 2 1 0 2 0 1 1 1 1 0 0 1 2 1 1 1 0 0 0 0 0 0 0 0 


CELL_DATA 51
SCALARS GMDS_ID int 1
LOOKUP_TABLE default
0 1 2 3 4 5 6 7 8 9 10 11 12 13 14 15 16 17 18 19 20 21 22 23 24 25 26 27 28 29 30 31 32 33 34 35 36 37 38 39 40 41 42 43 44 45 46 47 48 49 50 

SCALARS blocking_topo_id int 1
LOOKUP_TABLE default
208 219 215 214 213 212 211 210 209 18 1476 16 1475 186 33 218 14 1474 217 201 166 163 200 160 199 216 185 32 1473 161 165 164 162 15 1352 9 1351 155 34 31 154 19 1350 1349 17 266 13 265 10 264 263 

SCALARS blocking_topo_dim int 1
LOOKUP_TABLE default
1 1 1 1 1 1 1 1 1 1 1 1 1 1 1 1 1 1 1 1 1 1 1 1 1 1 1 1 1 1 1 1 1 1 1 1 1 1 1 1 1 1 1 1 1 1 1 1 1 1 1 

SCALARS blocking_geom_id int 1
LOOKUP_TABLE default
10 5 1 1 3 1 6 2 8 21 21 12 12 5 5 5 15 15 1 1 1 3 2 4 3 1 2 19 18 7 2 7 2 9 9 16 16 2 2 14 7 5 5 17 20 20 11 11 6 6 13 

SCALARS blocking_geom_dim int 1
LOOKUP_TABLE default
1 2 3 3 2 1 2 1 1 1 1 1 1 2 2 2 1 1 2 2 2 1 2 1 2 2 2 1 1 1 2 2 2 1 1 1 1 2 2 1 2 1 1 1 1 1 1 1 1 1 1 

