# vtk DataFile Version 3.0
Generated by GMDS VTK Writer

ASCII
DATASET UNSTRUCTURED_GRID
POINTS 18 float
2 1 2
0 1 2
2 1 0
0 1 0
2 2 0
0 0 0
0 2 0
0 2 2
0 0 2
2 2 2
2 0 2
2 0 0
1 0 0
1 0 2
1 1 0
1 1 2
1 2 0
1 2 2

CELLS 20 100
4 14 3 1 15 
4 15 0 9 17 
4 13 10 0 15 
4 2 0 10 11 
4 0 2 4 9 
4 3 1 7 6 
4 1 3 5 8 
4 12 5 3 14 
4 14 3 6 16 
4 16 6 7 17 
4 12 11 10 13 
4 13 8 5 12 
4 14 2 11 12 
4 15 1 8 13 
4 15 0 2 14 
4 16 4 2 14 
4 17 7 1 15 
4 17 9 4 16 
4 12 13 15 14 
4 14 16 17 15 

CELL_TYPES 20
9 
9 
9 
9 
9 
9 
9 
9 
9 
9 
9 
9 
9 
9 
9 
9 
9 
9 
9 
9 
POINT_DATA 18
SCALARS GMDS_ID int 1
LOOKUP_TABLE default
0 1 2 3 4 5 6 7 8 9 10 11 12 13 14 15 16 17 
SCALARS blocking_topo_id int 1
LOOKUP_TABLE default
30 29 28 27 2 0 1 5 4 6 7 3 154 155 156 157 158 159 
SCALARS blocking_topo_dim int 1
LOOKUP_TABLE default
0 0 0 0 0 0 0 0 0 0 0 0 0 0 0 0 0 0 
SCALARS blocking_geom_id int 1
LOOKUP_TABLE default
20 11 6 3 14 -1 10 9 8 13 12 11 5 5 7 2 16 9 
SCALARS blocking_geom_dim int 1
LOOKUP_TABLE default
1 1 1 0 0 4 0 0 0 0 0 0 0 1 0 2 1 1 


CELL_DATA 20
SCALARS GMDS_ID int 1
LOOKUP_TABLE default
0 1 2 3 4 5 6 7 8 9 10 11 12 13 14 15 16 17 18 19 

SCALARS blocking_topo_id int 1
LOOKUP_TABLE default
35 270 25 269 23 268 21 267 20 22 24 1353 1354 1355 156 1356 1357 1358 167 168 

SCALARS blocking_topo_dim int 1
LOOKUP_TABLE default
2 2 2 2 2 2 2 2 2 2 2 2 2 2 2 2 2 2 2 2 

SCALARS blocking_geom_id int 1
LOOKUP_TABLE default
-1 -1 -1 -1 -1 -1 -1 -1 -1 -1 -1 -1 -1 -1 -1 -1 -1 -1 -1 -1 

SCALARS blocking_geom_dim int 1
LOOKUP_TABLE default
4 4 4 4 4 4 4 4 4 4 4 4 4 4 4 4 4 4 4 4 

