# vtk DataFile Version 3.0
Generated by GMDS VTK Writer

ASCII
DATASET UNSTRUCTURED_GRID
POINTS 27 float
1 0 0
1 1 0
1 0 2
1 2 0
1 2 2
1 1 2
2 1 2
0 1 2
2 1 0
0 1 0
2 2 0
0 0 0
0 2 0
0 2 2
0 0 2
2 2 2
2 0 2
2 0 0
0 0 1
0 1 1
1 0 1
1 1 1
1 2 1
0 2 1
2 1 1
2 2 1
2 0 1

CELLS 36 180
4 20 0 1 21 
4 22 4 15 25 
4 22 3 12 23 
4 5 4 13 7 
4 4 5 6 15 
4 1 3 10 8 
4 3 1 9 12 
4 21 1 8 24 
4 19 7 5 21 
4 2 5 7 14 
4 5 2 16 6 
4 0 1 8 17 
4 1 0 11 9 
4 18 11 0 20 
4 20 0 17 26 
4 24 6 16 26 
4 24 8 10 25 
4 19 7 13 23 
4 18 14 7 19 
4 21 1 3 22 
4 19 9 11 18 
4 20 2 14 18 
4 21 1 9 19 
4 23 12 9 19 
4 21 5 2 20 
4 26 16 2 20 
4 22 4 5 21 
4 24 6 5 21 
4 23 13 4 22 
4 25 10 3 22 
4 25 15 6 24 
4 26 17 8 24 
4 18 19 21 20 
4 19 23 22 21 
4 20 26 24 21 
4 21 24 25 22 

CELL_TYPES 36
9 
9 
9 
9 
9 
9 
9 
9 
9 
9 
9 
9 
9 
9 
9 
9 
9 
9 
9 
9 
9 
9 
9 
9 
9 
9 
9 
9 
9 
9 
9 
9 
9 
9 
9 
9 
POINT_DATA 27
SCALARS GMDS_ID int 1
LOOKUP_TABLE default
0 1 2 3 4 5 6 7 8 9 10 11 12 13 14 15 16 17 18 19 20 21 22 23 24 25 26 
SCALARS blocking_topo_id int 1
LOOKUP_TABLE default
154 156 155 158 159 157 30 29 28 27 2 0 1 5 4 6 7 3 199 200 201 202 203 204 205 206 207 
SCALARS blocking_topo_dim int 1
LOOKUP_TABLE default
0 0 0 0 0 0 0 0 0 0 0 0 0 0 0 0 0 0 0 0 0 0 0 0 0 0 0 
SCALARS blocking_geom_id int 1
LOOKUP_TABLE default
5 7 5 16 9 2 20 11 6 3 14 -1 10 9 8 13 12 11 1 2 4 -1 1 15 5 12 21 
SCALARS blocking_geom_dim int 1
LOOKUP_TABLE default
0 0 1 1 1 2 1 1 1 0 0 4 0 0 0 0 0 0 0 0 0 4 2 1 2 1 1 


CELL_DATA 36
SCALARS GMDS_ID int 1
LOOKUP_TABLE default
0 1 2 3 4 5 6 7 8 9 10 11 12 13 14 15 16 17 18 19 20 21 22 23 24 25 26 27 28 29 30 31 32 33 34 35 

SCALARS blocking_topo_id int 1
LOOKUP_TABLE default
167 1358 22 1357 270 1356 20 156 35 1355 25 1354 267 1353 24 269 23 268 21 168 1477 1478 187 1479 202 1480 203 188 1481 1482 1483 1484 220 221 222 223 

SCALARS blocking_topo_dim int 1
LOOKUP_TABLE default
2 2 2 2 2 2 2 2 2 2 2 2 2 2 2 2 2 2 2 2 2 2 2 2 2 2 2 2 2 2 2 2 2 2 2 2 

SCALARS blocking_geom_id int 1
LOOKUP_TABLE default
-1 -1 -1 -1 -1 -1 -1 -1 -1 -1 -1 -1 -1 -1 -1 -1 -1 -1 -1 -1 -1 -1 -1 -1 -1 -1 -1 -1 -1 -1 -1 -1 -1 -1 -1 -1 

SCALARS blocking_geom_dim int 1
LOOKUP_TABLE default
4 4 4 4 4 4 4 4 4 4 4 4 4 4 4 4 4 4 4 4 4 4 4 4 4 4 4 4 4 4 4 4 4 4 4 4 

