# vtk DataFile Version 3.0
Generated by GMDS VTK Writer

ASCII
DATASET UNSTRUCTURED_GRID
POINTS 30 float
2.5 5 -2
2.5 5 2
-2.5 5 -2
-5 5 -2
-2.5 5 2
5 5 -2
5 5 2
-5 5 2
2.5 10 -2
2.5 10 2
2.5 7.5 -2
1.76326288537443 6.76326288537443 2
2.5 -5 -2
2.5 5 2
5 7.5 2
5 7.5 -2
-1.76326288537443 6.76326288537443 2
-2.5 7.5 -2
-5 7.5 -2
-5 7.5 2
-2.5 -5 -2
-2.5 10 -2
-2.5 -5 2
-2.5 10 2
-5 -5 2
5 -5 2
5 -5 -2
-5 -5 -2
5 10 2
5 10 -2

CELLS 38 190
4 0 1 11 10 
4 0 1 13 12 
4 2 3 18 17 
4 3 2 20 27 
4 4 2 17 16 
4 2 4 22 20 
4 2 0 12 20 
4 0 2 17 10 
4 5 26 12 0 
4 5 15 14 6 
4 6 25 26 5 
4 6 14 11 1 
4 7 24 22 4 
4 7 19 18 3 
4 3 27 24 7 
4 1 13 25 6 
4 1 11 16 4 
4 4 16 19 7 
4 4 22 13 1 
4 0 10 15 5 
4 8 9 11 10 
4 8 9 28 29 
4 9 8 21 23 
4 13 12 26 25 
4 12 13 22 20 
4 10 8 29 15 
4 8 10 17 21 
4 11 9 23 16 
4 9 11 14 28 
4 6 5 0 1 
4 10 15 14 11 
4 10 17 16 11 
4 7 3 2 4 
4 1 0 2 4 
4 18 19 16 17 
4 14 15 29 28 
4 17 16 23 21 
4 20 22 24 27 

CELL_TYPES 38
9 
9 
9 
9 
9 
9 
9 
9 
9 
9 
9 
9 
9 
9 
9 
9 
9 
9 
9 
9 
9 
9 
9 
9 
9 
9 
9 
9 
9 
9 
9 
9 
9 
9 
9 
9 
9 
9 
POINT_DATA 30
SCALARS GMDS_ID int 1
LOOKUP_TABLE default
0 1 2 3 4 5 6 7 8 9 10 11 12 13 14 15 16 17 18 19 20 21 22 23 24 25 26 27 28 29 
SCALARS blocking_topo_id int 1
LOOKUP_TABLE default
235 237 234 238 236 241 240 239 211 212 208 207 210 209 101 100 98 96 97 99 30 28 29 27 4 7 3 0 6 2 
SCALARS blocking_topo_dim int 1
LOOKUP_TABLE default
0 0 0 0 0 0 0 0 0 0 0 0 0 0 0 0 0 0 0 0 0 0 0 0 0 0 0 0 0 0 
SCALARS blocking_geom_id int 1
LOOKUP_TABLE default
4 11 1 8 2 8 9 9 -1 -1 5 11 3 11 -1 -1 11 5 -1 -1 3 -1 6 -1 5 8 7 6 -1 -1 
SCALARS blocking_geom_dim int 1
LOOKUP_TABLE default
0 1 0 1 0 1 1 1 4 4 2 1 1 1 4 4 1 2 4 4 1 4 1 4 0 0 0 0 4 4 


CELL_DATA 38
SCALARS GMDS_ID int 1
LOOKUP_TABLE default
0 1 2 3 4 5 6 7 8 9 10 11 12 13 14 15 16 17 18 19 20 21 22 23 24 25 26 27 28 29 30 31 32 33 34 35 36 37 

SCALARS blocking_topo_id int 1
LOOKUP_TABLE default
220 236 3211 1106 212 98 3210 3140 3212 3217 2231 3215 3214 3216 21 3138 3213 2229 1105 2227 221 3143 22 3142 1107 3141 20 3139 2230 254 110 215 253 252 109 23 35 24 

SCALARS blocking_topo_dim int 1
LOOKUP_TABLE default
2 2 2 2 2 2 2 2 2 2 2 2 2 2 2 2 2 2 2 2 2 2 2 2 2 2 2 2 2 2 2 2 2 2 2 2 2 2 

SCALARS blocking_geom_id int 1
LOOKUP_TABLE default
-1 -1 -1 -1 -1 -1 -1 -1 -1 -1 -1 -1 -1 -1 -1 -1 -1 -1 -1 -1 -1 -1 -1 -1 -1 -1 -1 -1 -1 -1 -1 -1 -1 -1 -1 -1 -1 -1 

SCALARS blocking_geom_dim int 1
LOOKUP_TABLE default
4 4 4 4 4 4 4 4 4 4 4 4 4 4 4 4 4 4 4 4 4 4 4 4 4 4 4 4 4 4 4 4 4 4 4 4 4 4 

