# vtk DataFile Version 3.0
Generated by GMDS VTK Writer

ASCII
DATASET UNSTRUCTURED_GRID
POINTS 26 float
0 1 1
0 0 1
2 1 1
2 0 1
1 1 1
1 2 1
1 0 1
0 2 1
2 2 1
1 2 2
1 2 0
1 0 0
1 1 0
1 0 2
1 1 2
2 1 2
0 1 2
2 1 0
0 1 0
2 2 0
0 2 0
0 2 2
0 0 2
2 2 2
2 0 2
2 0 0

CELLS 33 165
4 1 0 4 6 
4 2 3 25 17 
4 3 2 15 24 
4 2 4 14 15 
4 4 2 17 12 
4 5 4 14 9 
4 4 5 10 12 
4 6 3 24 13 
4 3 6 11 25 
4 4 6 13 14 
4 6 4 12 11 
4 0 7 20 18 
4 7 0 16 21 
4 4 0 18 12 
4 0 4 14 16 
4 1 6 13 22 
4 0 1 22 16 
4 8 19 10 5 
4 8 23 15 2 
4 2 17 19 8 
4 8 2 4 5 
4 7 21 9 5 
4 5 9 23 8 
4 5 10 20 7 
4 2 3 6 4 
4 5 7 0 4 
4 14 9 21 16 
4 9 14 15 23 
4 12 10 19 17 
4 10 12 18 20 
4 13 14 16 22 
4 14 13 24 15 
4 11 12 17 25 

CELL_TYPES 33
9 
9 
9 
9 
9 
9 
9 
9 
9 
9 
9 
9 
9 
9 
9 
9 
9 
9 
9 
9 
9 
9 
9 
9 
9 
9 
9 
9 
9 
9 
9 
9 
9 
POINT_DATA 26
SCALARS GMDS_ID int 1
LOOKUP_TABLE default
0 1 2 3 4 5 6 7 8 9 10 11 12 13 14 15 16 17 18 19 20 21 22 23 24 25 
SCALARS blocking_topo_id int 1
LOOKUP_TABLE default
200 199 205 207 202 203 201 204 206 159 158 154 156 155 157 30 29 28 27 2 1 5 4 6 7 3 
SCALARS blocking_topo_dim int 1
LOOKUP_TABLE default
0 0 0 0 0 0 0 0 0 0 0 0 0 0 0 0 0 0 0 0 0 0 0 0 0 0 
SCALARS blocking_geom_id int 1
LOOKUP_TABLE default
2 1 5 21 6 1 4 15 12 9 16 5 7 5 2 20 11 6 3 14 10 9 8 13 12 11 
SCALARS blocking_geom_dim int 1
LOOKUP_TABLE default
0 0 2 1 0 2 0 1 1 1 1 0 0 1 2 1 1 1 0 0 0 0 0 0 0 0 


CELL_DATA 33
SCALARS GMDS_ID int 1
LOOKUP_TABLE default
0 1 2 3 4 5 6 7 8 9 10 11 12 13 14 15 16 17 18 19 20 21 22 23 24 25 26 27 28 29 30 31 32 

SCALARS blocking_topo_id int 1
LOOKUP_TABLE default
220 1484 269 188 156 203 168 1480 24 202 167 1479 268 187 35 1478 21 1482 1483 23 223 1481 1358 22 222 221 1357 270 1356 20 1355 25 1354 

SCALARS blocking_topo_dim int 1
LOOKUP_TABLE default
2 2 2 2 2 2 2 2 2 2 2 2 2 2 2 2 2 2 2 2 2 2 2 2 2 2 2 2 2 2 2 2 2 

SCALARS blocking_geom_id int 1
LOOKUP_TABLE default
8 5 5 1 1 1 1 3 3 1 4 6 6 9 2 3 6 1 5 5 1 1 1 1 1 1 2 2 7 7 2 2 7 

SCALARS blocking_geom_dim int 1
LOOKUP_TABLE default
2 2 2 3 3 3 3 2 2 3 2 2 2 2 2 2 2 2 2 2 3 2 2 2 3 3 2 2 2 2 2 2 2 

