# vtk DataFile Version 3.0
Generated by GMDS VTK Writer

ASCII
DATASET UNSTRUCTURED_GRID
POINTS 8 float
5 10 2
-5 10 2
-5 10 -2
-5 -5 2
5 -5 2
5 -5 -2
-5 -5 -2
5 10 -2

CELLS 6 30
4 0 7 2 1 
4 3 6 5 4 
4 1 2 6 3 
4 3 4 0 1 
4 4 5 7 0 
4 5 6 2 7 

CELL_TYPES 6
9 
9 
9 
9 
9 
9 
POINT_DATA 8
SCALARS GMDS_ID int 1
LOOKUP_TABLE default
0 1 2 3 4 5 6 7 
SCALARS blocking_topo_id int 1
LOOKUP_TABLE default
6 5 1 4 7 3 0 2 
SCALARS blocking_topo_dim int 1
LOOKUP_TABLE default
0 0 0 0 0 0 0 0 
SCALARS blocking_geom_id int 1
LOOKUP_TABLE default
-1 -1 -1 5 8 7 6 -1 
SCALARS blocking_geom_dim int 1
LOOKUP_TABLE default
4 4 4 0 0 0 0 4 


CELL_DATA 6
SCALARS GMDS_ID int 1
LOOKUP_TABLE default
0 1 2 3 4 5 

SCALARS blocking_topo_id int 1
LOOKUP_TABLE default
22 24 21 25 23 20 

SCALARS blocking_topo_dim int 1
LOOKUP_TABLE default
2 2 2 2 2 2 

SCALARS blocking_geom_id int 1
LOOKUP_TABLE default
-1 -1 -1 -1 -1 -1 

SCALARS blocking_geom_dim int 1
LOOKUP_TABLE default
4 4 4 4 4 4 

