# vtk DataFile Version 3.0
Generated by GMDS VTK Writer

ASCII
DATASET UNSTRUCTURED_GRID
POINTS 648 float
-5 -5 -5
-5 5 -5
5 5 -5
5 -5 -5
-5 -5 5
-5 5 5
5 5 5
5 -5 5
0 -5 5
8.88178419700125e-16 5 5
0 -5 -5
0 5 -5
0 0 -5
4.44089209850063e-16 0 5
-5 0 -5
-5 0 5
5 0 5
5 0 -5
5 0 0
2.22044604925031e-16 0 0
5 -5 8.88178419700125e-16
0 -5 0
-5 -5 8.88178419700125e-16
-5 0 0
-5 5 8.88178419700125e-16
4.44089209850063e-16 5 0
5 5 8.88178419700125e-16
2.5 5 4.44089209850063e-16
2.5 0 0
2.5 5 5
2.5 0 5
2.5 -5 5
2.5 -5 4.44089209850063e-16
2.5 -5 -5
2.5 0 -5
2.5 5 -5
2.5 2.5 -5
2.5 2.5 2.22044604925031e-16
0 2.5 -5
3.33066907387547e-16 2.5 0
6.66133814775094e-16 2.5 5
2.5 2.5 5
-5 2.5 4.44089209850063e-16
-5 2.5 5
-5 2.5 -5
5 2.5 5
5 2.5 4.44089209850063e-16
5 2.5 -5
5 2.5 -2.5
2.5 2.5 -2.5
5 0 -2.5
2.5 0 -2.5
1.11022302462516e-16 0 -2.5
1.66533453693773e-16 2.5 -2.5
2.5 -5 -2.5
0 -5 -2.5
5 -5 -2.5
-5 -5 -2.5
-5 0 -2.5
-5 2.5 -2.5
-5 5 -2.5
2.22044604925031e-16 5 -2.5
2.5 5 -2.5
5 5 -2.5
3.75 5 -2.5
3.75 2.5 -2.5
3.75 5 6.66133814775094e-16
3.75 2.5 3.33066907387547e-16
3.75 0 0
3.75 0 -2.5
3.75 2.5 5
3.75 0 5
3.75 5 5
3.75 -5 5
3.75 -5 6.66133814775094e-16
3.75 -5 -2.5
3.75 -5 -5
3.75 0 -5
3.75 2.5 -5
3.75 5 -5
3.75 3.75 -5
3.75 3.75 -2.5
2.5 3.75 -5
2.5 3.75 -2.5
2.5 3.75 3.33066907387547e-16
3.75 3.75 4.9960036108132e-16
1.94289029309402e-16 3.75 -2.5
3.88578058618805e-16 3.75 0
0 3.75 -5
-5 3.75 -5
-5 3.75 -2.5
-5 3.75 6.66133814775094e-16
-5 3.75 5
7.7715611723761e-16 3.75 5
2.5 3.75 5
3.75 3.75 5
5 3.75 5
5 3.75 6.66133814775094e-16
5 3.75 -2.5
5 3.75 -5
5 3.75 -3.75
3.75 3.75 -3.75
5 2.5 -3.75
3.75 2.5 -3.75
2.5 2.5 -3.75
2.5 3.75 -3.75
3.75 0 -3.75
2.5 0 -3.75
5 0 -3.75
5 -5 -3.75
3.75 -5 -3.75
2.5 -5 -3.75
0 -5 -3.75
5.55111512312578e-17 0 -3.75
8.32667268468867e-17 2.5 -3.75
-5 0 -3.75
-5 2.5 -3.75
-5 -5 -3.75
-5 3.75 -3.75
9.71445146547012e-17 3.75 -3.75
1.11022302462516e-16 5 -3.75
2.5 5 -3.75
-5 5 -3.75
3.75 5 -3.75
5 5 -3.75
-2.5 5 -3.75
-2.5 3.75 -3.75
-2.5 5 -5
-2.5 3.75 -5
-2.5 2.5 -5
-2.5 2.5 -3.75
-2.5 2.5 -2.5
-2.5 3.75 -2.5
-2.5 0 -3.75
-2.5 0 -2.5
-2.5 0 -5
-2.5 -5 -5
-2.5 -5 -3.75
-2.5 -5 -2.5
-2.5 -5 4.44089209850063e-16
-2.5 0 0
-2.5 2.5 2.22044604925031e-16
-2.5 0 5
-2.5 2.5 5
-2.5 -5 5
-2.5 3.75 5
-2.5 3.75 3.33066907387547e-16
-2.5 5 4.44089209850063e-16
-2.5 5 -2.5
-2.5 5 5
-2.5 5 2.5
-2.5 3.75 2.5
-5 5 2.5
-5 3.75 2.5
-5 2.5 2.5
-2.5 2.5 2.5
4.9960036108132e-16 2.5 2.5
5.82867087928207e-16 3.75 2.5
-2.5 0 2.5
3.33066907387547e-16 0 2.5
-5 0 2.5
-5 -5 2.5
-2.5 -5 2.5
0 -5 2.5
2.5 -5 2.5
2.5 0 2.5
2.5 2.5 2.5
3.75 0 2.5
3.75 2.5 2.5
3.75 -5 2.5
5 -5 2.5
5 0 2.5
5 2.5 2.5
5 3.75 2.5
3.75 3.75 2.5
2.5 3.75 2.5
3.75 5 2.5
2.5 5 2.5
5 5 2.5
6.66133814775094e-16 5 2.5
1.25 5 2.5
1.25 5 5
1.25 3.75 2.5
1.25 3.75 5
1.25 5 2.22044604925031e-16
1.25 3.75 1.66533453693773e-16
1.25 2.5 1.11022302462516e-16
1.25 2.5 2.5
1.25 3.75 -2.5
1.25 2.5 -2.5
1.25 5 -2.5
1.25 5 -3.75
1.25 3.75 -3.75
1.25 2.5 -3.75
1.25 3.75 -5
1.25 2.5 -5
1.25 5 -5
1.25 0 -5
1.25 0 -3.75
1.25 0 -2.5
1.25 -5 -3.75
1.25 -5 -2.5
1.25 -5 -5
1.25 -5 2.22044604925031e-16
1.25 0 0
1.25 0 2.5
1.25 -5 2.5
1.25 -5 5
1.25 0 5
1.25 2.5 5
1.25 1.25 5
5.55111512312578e-16 1.25 5
1.25 1.25 2.5
4.16333634234434e-16 1.25 2.5
2.5 1.25 5
2.5 1.25 2.5
2.5 1.25 1.11022302462516e-16
1.25 1.25 5.55111512312578e-17
3.75 1.25 2.5
3.75 1.25 1.66533453693773e-16
3.75 1.25 5
5 1.25 5
5 1.25 2.5
5 1.25 2.22044604925031e-16
5 1.25 -2.5
3.75 1.25 -2.5
2.5 1.25 -2.5
3.75 1.25 -3.75
2.5 1.25 -3.75
5 1.25 -3.75
5 1.25 -5
3.75 1.25 -5
2.5 1.25 -5
1.25 1.25 -5
1.25 1.25 -3.75
1.25 1.25 -2.5
6.93889390390723e-17 1.25 -3.75
1.38777878078145e-16 1.25 -2.5
0 1.25 -5
-2.5 1.25 -5
-2.5 1.25 -3.75
-2.5 1.25 -2.5
-5 1.25 -3.75
-5 1.25 -2.5
-5 1.25 -5
-5 1.25 2.22044604925031e-16
-2.5 1.25 1.11022302462516e-16
2.77555756156289e-16 1.25 0
-2.5 1.25 2.5
-5 1.25 2.5
-5 1.25 5
-2.5 1.25 5
-3.75 1.25 5
-3.75 2.5 5
-3.75 1.25 2.5
-3.75 2.5 2.5
-3.75 0 5
-3.75 0 2.5
-3.75 0 0
-3.75 1.25 1.66533453693773e-16
-3.75 -5 2.5
-3.75 -5 6.66133814775094e-16
-3.75 -5 5
-3.75 -5 -2.5
-3.75 0 -2.5
-3.75 1.25 -2.5
-3.75 0 -3.75
-3.75 1.25 -3.75
-3.75 -5 -3.75
-3.75 -5 -5
-3.75 0 -5
-3.75 1.25 -5
-3.75 2.5 -5
-3.75 2.5 -3.75
-3.75 2.5 -2.5
-3.75 3.75 -3.75
-3.75 3.75 -2.5
-3.75 3.75 -5
-3.75 5 -5
-3.75 5 -3.75
-3.75 5 -2.5
-3.75 5 6.66133814775094e-16
-3.75 3.75 4.9960036108132e-16
-3.75 2.5 3.33066907387547e-16
-3.75 3.75 2.5
-3.75 5 2.5
-3.75 5 5
-3.75 3.75 5
-3.75 5 3.75
-2.5 5 3.75
-3.75 3.75 3.75
-2.5 3.75 3.75
-5 5 3.75
-5 3.75 3.75
-5 2.5 3.75
-3.75 2.5 3.75
-2.5 2.5 3.75
-3.75 1.25 3.75
-2.5 1.25 3.75
-5 1.25 3.75
-5 0 3.75
-3.75 0 3.75
-2.5 0 3.75
-3.75 -5 3.75
-2.5 -5 3.75
-5 -5 3.75
0 -5 3.75
3.88578058618805e-16 0 3.75
4.85722573273506e-16 1.25 3.75
1.25 0 3.75
1.25 1.25 3.75
1.25 -5 3.75
2.5 -5 3.75
2.5 0 3.75
2.5 1.25 3.75
3.75 0 3.75
3.75 1.25 3.75
3.75 -5 3.75
5 -5 3.75
5 0 3.75
5 1.25 3.75
5 2.5 3.75
3.75 2.5 3.75
2.5 2.5 3.75
3.75 3.75 3.75
2.5 3.75 3.75
5 3.75 3.75
5 5 3.75
3.75 5 3.75
2.5 5 3.75
1.25 5 3.75
1.25 3.75 3.75
1.25 2.5 3.75
6.80011602582908e-16 3.75 3.75
5.82867087928207e-16 2.5 3.75
7.7715611723761e-16 5 3.75
5 -2.5 3.75
5 -2.5 5
3.75 -2.5 3.75
3.75 -2.5 5
5 -2.5 2.5
3.75 -2.5 2.5
2.5 -2.5 2.5
2.5 -2.5 3.75
3.75 -2.5 3.33066907387547e-16
2.5 -2.5 2.22044604925031e-16
5 -2.5 4.44089209850063e-16
5 -2.5 -2.5
3.75 -2.5 -2.5
2.5 -2.5 -2.5
3.75 -2.5 -3.75
2.5 -2.5 -3.75
5 -2.5 -3.75
5 -2.5 -5
3.75 -2.5 -5
2.5 -2.5 -5
1.25 -2.5 -5
1.25 -2.5 -3.75
1.25 -2.5 -2.5
2.77555756156289e-17 -2.5 -3.75
5.55111512312578e-17 -2.5 -2.5
0 -2.5 -5
-2.5 -2.5 -5
-2.5 -2.5 -3.75
-2.5 -2.5 -2.5
-3.75 -2.5 -3.75
-3.75 -2.5 -2.5
-3.75 -2.5 -5
-5 -2.5 -5
-5 -2.5 -3.75
-5 -2.5 -2.5
-5 -2.5 4.44089209850063e-16
-3.75 -2.5 3.33066907387547e-16
-2.5 -2.5 2.22044604925031e-16
-3.75 -2.5 2.5
-2.5 -2.5 2.5
-5 -2.5 2.5
-5 -2.5 3.75
-3.75 -2.5 3.75
-2.5 -2.5 3.75
-3.75 -2.5 5
-2.5 -2.5 5
-5 -2.5 5
2.22044604925031e-16 -2.5 5
1.94289029309402e-16 -2.5 3.75
1.66533453693773e-16 -2.5 2.5
1.25 -2.5 3.75
1.25 -2.5 2.5
1.25 -2.5 5
2.5 -2.5 5
1.25 -2.5 1.11022302462516e-16
1.11022302462516e-16 -2.5 0
1.25 -2.5 1.25
1.25 0 1.25
1.38777878078145e-16 -2.5 1.25
2.77555756156289e-16 0 1.25
1.25 -5 1.25
0 -5 1.25
2.5 -2.5 1.25
2.5 -5 1.25
2.5 0 1.25
3.75 0 1.25
3.75 -2.5 1.25
2.5 1.25 1.25
3.75 1.25 1.25
1.25 1.25 1.25
1.25 2.5 1.25
2.5 2.5 1.25
3.46944695195361e-16 1.25 1.25
4.16333634234434e-16 2.5 1.25
4.85722573273506e-16 3.75 1.25
1.25 3.75 1.25
-2.5 2.5 1.25
-2.5 3.75 1.25
-2.5 1.25 1.25
-3.75 1.25 1.25
-3.75 2.5 1.25
-2.5 0 1.25
-3.75 0 1.25
-5 0 1.25
-5 1.25 1.25
-3.75 -2.5 1.25
-5 -2.5 1.25
-2.5 -2.5 1.25
-2.5 -5 1.25
-3.75 -5 1.25
-5 -5 1.25
-5 2.5 1.25
-5 3.75 1.25
-3.75 3.75 1.25
-3.75 5 1.25
-2.5 5 1.25
-5 5 1.25
5.55111512312578e-16 5 1.25
1.25 5 1.25
2.5 5 1.25
2.5 3.75 1.25
3.75 3.75 1.25
3.75 2.5 1.25
3.75 5 1.25
5 5 1.25
5 3.75 1.25
5 2.5 1.25
5 1.25 1.25
5 0 1.25
5 -2.5 1.25
5 -5 1.25
3.75 -5 1.25
5 -3.75 1.25
5 -3.75 6.66133814775094e-16
3.75 -3.75 1.25
3.75 -3.75 4.9960036108132e-16
5 -3.75 2.5
3.75 -3.75 2.5
2.5 -3.75 2.5
2.5 -3.75 1.25
3.75 -3.75 3.75
2.5 -3.75 3.75
5 -3.75 3.75
5 -3.75 5
3.75 -3.75 5
2.5 -3.75 5
1.25 -3.75 5
1.25 -3.75 3.75
1.25 -3.75 2.5
9.71445146547012e-17 -3.75 3.75
8.32667268468867e-17 -3.75 2.5
1.11022302462516e-16 -3.75 5
-2.5 -3.75 5
-2.5 -3.75 3.75
-2.5 -3.75 2.5
-3.75 -3.75 3.75
-3.75 -3.75 2.5
-3.75 -3.75 5
-5 -3.75 5
-5 -3.75 3.75
-5 -3.75 2.5
-5 -3.75 1.25
-3.75 -3.75 1.25
-2.5 -3.75 1.25
-3.75 -3.75 4.9960036108132e-16
-2.5 -3.75 3.33066907387547e-16
-5 -3.75 6.66133814775094e-16
-5 -3.75 -2.5
-3.75 -3.75 -2.5
-2.5 -3.75 -2.5
-3.75 -3.75 -3.75
-2.5 -3.75 -3.75
-5 -3.75 -3.75
-5 -3.75 -5
-3.75 -3.75 -5
-2.5 -3.75 -5
0 -3.75 -5
1.38777878078145e-17 -3.75 -3.75
2.77555756156289e-17 -3.75 -2.5
1.25 -3.75 -3.75
1.25 -3.75 -2.5
1.25 -3.75 -5
2.5 -3.75 -5
2.5 -3.75 -3.75
2.5 -3.75 -2.5
3.75 -3.75 -3.75
3.75 -3.75 -2.5
3.75 -3.75 -5
5 -3.75 -5
5 -3.75 -3.75
5 -3.75 -2.5
2.5 -3.75 3.33066907387547e-16
1.25 -3.75 1.66533453693773e-16
1.25 -3.75 1.25
6.93889390390723e-17 -3.75 1.25
5.55111512312578e-17 -3.75 0
2.5 -3.75 -1.25
2.5 -5 -1.25
1.25 -3.75 -1.25
1.25 -5 -1.25
2.5 -2.5 -1.25
1.25 -2.5 -1.25
3.75 -3.75 -1.25
3.75 -2.5 -1.25
3.75 -5 -1.25
5 -5 -1.25
5 -3.75 -1.25
5 -2.5 -1.25
5 0 -1.25
3.75 0 -1.25
2.5 0 -1.25
3.75 1.25 -1.25
2.5 1.25 -1.25
5 1.25 -1.25
5 2.5 -1.25
3.75 2.5 -1.25
2.5 2.5 -1.25
3.75 3.75 -1.25
2.5 3.75 -1.25
5 3.75 -1.25
5 5 -1.25
3.75 5 -1.25
2.5 5 -1.25
1.25 5 -1.25
1.25 3.75 -1.25
1.25 2.5 -1.25
2.91433543964104e-16 3.75 -1.25
2.4980018054066e-16 2.5 -1.25
3.33066907387547e-16 5 -1.25
-2.5 5 -1.25
-2.5 3.75 -1.25
-2.5 2.5 -1.25
-3.75 3.75 -1.25
-3.75 2.5 -1.25
-3.75 5 -1.25
-5 5 -1.25
-5 3.75 -1.25
-5 2.5 -1.25
-5 1.25 -1.25
-3.75 1.25 -1.25
-2.5 1.25 -1.25
-3.75 0 -1.25
-2.5 0 -1.25
-5 0 -1.25
-5 -2.5 -1.25
-3.75 -2.5 -1.25
-2.5 -2.5 -1.25
-3.75 -3.75 -1.25
-2.5 -3.75 -1.25
-5 -3.75 -1.25
-5 -5 -1.25
-3.75 -5 -1.25
-2.5 -5 -1.25
0 -5 -1.25
4.16333634234434e-17 -3.75 -1.25
8.32667268468867e-17 -2.5 -1.25
1.66533453693773e-16 0 -1.25
1.25 0 -1.25
1.25 1.25 -1.25
2.08166817117217e-16 1.25 -1.25
1.2490009027033e-16 -1.25 -1.25
1.66533453693773e-16 -1.25 0
-2.5 -1.25 -1.25
-2.5 -1.25 1.11022302462516e-16
8.32667268468867e-17 -1.25 -2.5
-2.5 -1.25 -2.5
1.25 -1.25 -1.25
1.25 -1.25 -2.5
1.25 -1.25 5.55111512312578e-17
2.5 -1.25 1.11022302462516e-16
2.5 -1.25 -1.25
1.25 -1.25 1.25
2.5 -1.25 1.25
2.08166817117217e-16 -1.25 1.25
2.4980018054066e-16 -1.25 2.5
1.25 -1.25 2.5
-2.5 -1.25 1.25
-2.5 -1.25 2.5
-2.5 -1.25 3.75
2.91433543964104e-16 -1.25 3.75
-3.75 -1.25 2.5
-3.75 -1.25 3.75
-3.75 -1.25 1.25
-5 -1.25 1.25
-5 -1.25 2.5
-3.75 -1.25 1.66533453693773e-16
-5 -1.25 2.22044604925031e-16
-3.75 -1.25 -1.25
-5 -1.25 -1.25
-3.75 -1.25 -2.5
-5 -1.25 -2.5
-3.75 -1.25 -3.75
-5 -1.25 -3.75
-2.5 -1.25 -3.75
-2.5 -1.25 -5
-3.75 -1.25 -5
4.16333634234434e-17 -1.25 -3.75
0 -1.25 -5
1.25 -1.25 -3.75
1.25 -1.25 -5
2.5 -1.25 -3.75
2.5 -1.25 -5
2.5 -1.25 -2.5
[...]
POINT_DATA 648
SCALARS GMDS_ID int 1
LOOKUP_TABLE default
0 1 2 3 4 5 6 7 8 9 10 11 12 13 14 15 16 17 18 19 20 21 22 23 24 25 26 27 28 29 30 31 32 33 34 35 36 37 38 39 40 41 42 43 44 45 46 47 48 49 50 51 52 53 54 55 56 57 58 59 60 61 62 63 64 65 66 67 68 69 70 71 72 73 74 75 76 77 78 79 80 81 82 83 84 85 86 87 88 89 90 91 92 93 94 95 96 97 98 99 100 101 102 103 104 105 106 107 108 109 110 111 112 113 114 115 116 117 118 119 120 121 122 123 124 125 126 127 128 129 130 131 132 133 134 135 136 137 138 139 140 141 142 143 144 145 146 147 148 149 150 151 152 153 154 155 156 157 158 159 160 161 162 163 164 165 166 167 168 169 170 171 172 173 174 175 176 177 178 179 180 181 182 183 184 185 186 187 188 189 190 191 192 193 194 195 196 197 198 199 200 201 202 203 204 205 206 207 208 209 210 211 212 213 214 215 216 217 218 219 220 221 222 223 224 225 226 227 228 229 230 231 232 233 234 235 236 237 238 239 240 241 242 243 244 245 246 247 248 249 250 251 252 253 254 255 256 257 258 259 260 261 262 263 264 265 266 267 268 269 270 271 272 273 274 275 276 277 278 279 280 281 282 283 284 285 286 287 288 289 290 291 292 293 294 295 296 297 298 299 300 301 302 303 304 305 306 307 308 309 310 311 312 313 314 315 316 317 318 319 320 321 322 323 324 325 326 327 328 329 330 331 332 333 334 335 336 337 338 339 340 341 342 343 344 345 346 347 348 349 350 351 352 353 354 355 356 357 358 359 360 361 362 363 364 365 366 367 368 369 370 371 372 373 374 375 376 377 378 379 380 381 382 383 384 385 386 387 388 389 390 391 392 393 394 395 396 397 398 399 400 401 402 403 404 405 406 407 408 409 410 411 412 413 414 415 416 417 418 419 420 421 422 423 424 425 426 427 428 429 430 431 432 433 434 435 436 437 438 439 440 441 442 443 444 445 446 447 448 449 450 451 452 453 454 455 456 457 458 459 460 461 462 463 464 465 466 467 468 469 470 471 472 473 474 475 476 477 478 479 480 481 482 483 484 485 486 487 488 489 490 491 492 493 494 495 496 497 498 499 500 501 502 503 504 505 506 507 508 509 510 511 512 513 514 515 516 517 518 519 520 521 522 523 524 525 526 527 528 529 530 531 532 533 534 535 536 537 538 539 540 541 542 543 544 545 546 547 548 549 550 551 552 553 554 555 556 557 558 559 560 561 562 563 564 565 566 567 568 569 570 571 572 573 574 575 576 577 578 579 580 581 582 583 584 585 586 587 588 589 590 591 592 593 594 595 596 597 598 599 600 601 602 603 604 605 606 607 608 609 610 611 612 613 614 615 616 617 618 619 620 621 622 623 624 625 626 627 628 629 630 631 632 633 634 635 636 637 638 639 640 641 642 643 644 645 646 647 
SCALARS blocking_topo_id int 1
LOOKUP_TABLE default
0 1 2 3 4 5 6 7 28 30 32 34 46 48 50 52 54 56 76 78 80 82 84 86 88 90 92 126 128 130 132 134 136 138 140 142 176 178 180 182 184 186 188 190 192 194 196 198 246 248 250 252 254 256 258 260 262 264 266 268 270 272 274 276 344 346 348 350 352 354 356 358 360 362 364 366 368 370 372 374 442 444 446 448 450 452 454 456 458 460 462 464 466 468 470 472 474 476 478 480 568 570 572 574 576 578 580 582 584 586 588 590 592 594 596 598 600 602 604 606 608 610 612 614 616 730 732 734 736 738 740 742 744 746 748 750 752 754 756 758 760 762 764 766 768 770 772 774 776 778 892 894 896 898 900 902 904 906 908 910 912 914 916 918 920 922 924 926 928 930 932 934 936 938 940 942 944 946 948 950 1090 1092 1094 1096 1098 1100 1102 1104 1106 1108 1110 1112 1114 1116 1118 1120 1122 1124 1126 1128 1130 1132 1134 1136 1138 1140 1142 1144 1146 1148 1288 1290 1292 1294 1296 1298 1300 1302 1304 1306 1308 1310 1312 1314 1316 1318 1320 1322 1324 1326 1328 1330 1332 1334 1336 1338 1340 1342 1344 1346 1348 1350 1352 1354 1356 1358 1360 1362 1364 1366 1368 1370 1574 1576 1578 1580 1582 1584 1586 1588 1590 1592 1594 1596 1598 1600 1602 1604 1606 1608 1610 1612 1614 1616 1618 1620 1622 1624 1626 1628 1630 1632 1634 1636 1638 1640 1642 1644 1816 1818 1820 1822 1824 1826 1828 1830 1832 1834 1836 1838 1840 1842 1844 1846 1848 1850 1852 1854 1856 1858 1860 1862 1864 1866 1868 1870 1872 1874 1876 1878 1880 1882 1884 1886 1888 1890 1892 1894 1896 1898 1900 1902 1904 1906 1908 1910 2146 2148 2150 2152 2154 2156 2158 2160 2162 2164 2166 2168 2170 2172 2174 2176 2178 2180 2182 2184 2186 2188 2190 2192 2194 2196 2198 2200 2202 2204 2206 2208 2210 2212 2214 2216 2218 2220 2222 2224 2226 2228 2230 2232 2234 2236 2238 2240 2242 2244 2246 2248 2250 2252 2254 2256 2536 2538 2540 2542 2544 2546 2548 2550 2552 2554 2556 2558 2560 2562 2564 2566 2568 2570 2572 2574 2576 2578 2580 2582 2584 2586 2588 2590 2592 2594 2596 2598 2600 2602 2604 2606 2608 2610 2612 2614 2616 2618 2620 2622 2624 2626 2628 2630 2632 2634 2636 2638 2640 2642 2644 2646 2926 2928 2930 2932 2934 2936 2938 2940 2942 2944 2946 2948 2950 2952 2954 2956 2958 2960 2962 2964 2966 2968 2970 2972 2974 2976 2978 2980 2982 2984 2986 2988 2990 2992 2994 2996 2998 3000 3002 3004 3006 3008 3010 3012 3014 3016 3018 3020 3022 3024 3026 3028 3030 3032 3034 3036 3038 3040 3042 3044 3046 3048 3050 3052 3376 3378 3380 3382 3384 3386 3388 3390 3392 3394 3396 3398 3400 3402 3404 3406 3408 3410 3412 3414 3416 3418 3420 3422 3424 3426 3428 3430 3432 3434 3436 3438 3440 3442 3444 3446 3448 3450 3452 3454 3456 3458 3460 3462 3464 3466 3468 3470 3472 3474 3476 3478 3480 3482 3484 3486 3488 3490 3492 3494 3496 3498 3500 3502 3826 3828 3830 3832 3834 3836 3838 3840 3842 3844 3846 3848 3850 3852 3854 3856 3858 3860 3862 3864 3866 3868 3870 3872 3874 3876 3878 3880 3882 3884 3886 3888 3890 3892 3894 3896 3898 3900 3902 3904 3906 3908 3910 3912 3914 3916 3918 3920 3922 3924 3926 3928 3930 3932 3934 3936 3938 3940 3942 3944 3946 3948 3950 3952 3954 3956 3958 3960 3962 3964 3966 3968 
SCALARS blocking_topo_dim int 1
LOOKUP_TABLE default
0 0 0 0 0 0 0 0 0 0 0 0 0 0 0 0 0 0 0 0 0 0 0 0 0 0 0 0 0 0 0 0 0 0 0 0 0 0 0 0 0 0 0 0 0 0 0 0 0 0 0 0 0 0 0 0 0 0 0 0 0 0 0 0 0 0 0 0 0 0 0 0 0 0 0 0 0 0 0 0 0 0 0 0 0 0 0 0 0 0 0 0 0 0 0 0 0 0 0 0 0 0 0 0 0 0 0 0 0 0 0 0 0 0 0 0 0 0 0 0 0 0 0 0 0 0 0 0 0 0 0 0 0 0 0 0 0 0 0 0 0 0 0 0 0 0 0 0 0 0 0 0 0 0 0 0 0 0 0 0 0 0 0 0 0 0 0 0 0 0 0 0 0 0 0 0 0 0 0 0 0 0 0 0 0 0 0 0 0 0 0 0 0 0 0 0 0 0 0 0 0 0 0 0 0 0 0 0 0 0 0 0 0 0 0 0 0 0 0 0 0 0 0 0 0 0 0 0 0 0 0 0 0 0 0 0 0 0 0 0 0 0 0 0 0 0 0 0 0 0 0 0 0 0 0 0 0 0 0 0 0 0 0 0 0 0 0 0 0 0 0 0 0 0 0 0 0 0 0 0 0 0 0 0 0 0 0 0 0 0 0 0 0 0 0 0 0 0 0 0 0 0 0 0 0 0 0 0 0 0 0 0 0 0 0 0 0 0 0 0 0 0 0 0 0 0 0 0 0 0 0 0 0 0 0 0 0 0 0 0 0 0 0 0 0 0 0 0 0 0 0 0 0 0 0 0 0 0 0 0 0 0 0 0 0 0 0 0 0 0 0 0 0 0 0 0 0 0 0 0 0 0 0 0 0 0 0 0 0 0 0 0 0 0 0 0 0 0 0 0 0 0 0 0 0 0 0 0 0 0 0 0 0 0 0 0 0 0 0 0 0 0 0 0 0 0 0 0 0 0 0 0 0 0 0 0 0 0 0 0 0 0 0 0 0 0 0 0 0 0 0 0 0 0 0 0 0 0 0 0 0 0 0 0 0 0 0 0 0 0 0 0 0 0 0 0 0 0 0 0 0 0 0 0 0 0 0 0 0 0 0 0 0 0 0 0 0 0 0 0 0 0 0 0 0 0 0 0 0 0 0 0 0 0 0 0 0 0 0 0 0 0 0 0 0 0 0 0 0 0 0 0 0 0 0 0 0 0 0 0 0 0 0 0 0 0 0 0 0 0 0 0 0 0 0 0 0 0 0 0 0 0 0 0 0 0 0 0 0 0 0 0 0 0 0 0 0 0 0 0 0 0 0 0 0 0 0 0 0 0 0 0 0 0 0 0 0 0 0 0 0 0 0 0 0 0 0 0 0 0 0 0 0 0 0 0 0 0 0 0 0 0 0 0 0 0 0 0 0 0 0 0 0 0 0 0 0 0 0 0 0 0 0 0 0 0 0 0 
SCALARS blocking_geom_id int 1
LOOKUP_TABLE default
7 8 5 6 4 3 2 1 10 4 8 9 6 4 7 12 3 5 2 -1 6 5 1 1 11 3 2 3 -1 4 4 10 5 8 6 9 6 -1 6 -1 4 4 1 12 7 3 2 5 2 -1 2 -1 -1 -1 5 5 6 1 1 1 11 3 3 2 3 -1 3 -1 -1 -1 4 4 4 10 5 5 8 6 6 9 6 -1 6 -1 -1 -1 -1 -1 6 7 1 1 12 4 4 4 3 2 2 5 2 -1 2 -1 -1 -1 -1 -1 2 6 5 5 5 -1 -1 1 1 1 1 -1 3 3 11 3 2 3 -1 9 6 6 -1 -1 -1 -1 -1 6 8 5 5 5 -1 -1 4 4 10 4 -1 3 3 4 3 -1 11 1 1 -1 -1 -1 -1 -1 1 1 5 5 5 -1 -1 -1 -1 5 6 2 2 2 -1 -1 3 3 2 3 3 4 -1 4 3 -1 -1 -1 -1 -1 3 3 -1 -1 6 6 9 6 -1 -1 5 5 8 5 -1 -1 5 10 4 4 4 4 -1 -1 4 -1 -1 -1 -1 -1 4 3 2 2 2 -1 -1 -1 -1 2 5 6 6 6 -1 -1 -1 -1 6 6 -1 -1 1 1 7 1 -1 -1 -1 1 12 4 4 4 -1 -1 4 -1 -1 -1 5 5 10 5 -1 -1 -1 -1 5 8 6 6 6 -1 -1 -1 -1 6 9 3 3 3 -1 -1 -1 3 4 4 3 3 -1 -1 11 1 1 -1 -1 -1 -1 1 1 -1 -1 5 5 1 5 -1 -1 -1 -1 5 5 -1 -1 -1 -1 5 6 2 2 2 -1 -1 -1 -1 2 2 3 3 3 -1 -1 -1 -1 3 2 3 -1 4 2 -1 -1 -1 -1 -1 2 2 -1 -1 -1 -1 2 5 6 6 6 -1 -1 -1 -1 6 6 -1 -1 -1 -1 6 7 1 1 1 -1 -1 -1 -1 1 1 -1 -1 4 4 12 4 -1 -1 -1 -1 4 4 -1 -1 -1 -1 -1 -1 5 5 -1 5 -1 -1 -1 -1 -1 -1 -1 -1 -1 -1 -1 -1 -1 -1 -1 -1 -1 -1 -1 1 1 -1 1 -1 5 5 1 1 1 -1 3 3 11 3 3 3 -1 -1 -1 3 2 2 2 2 2 2 6 5 2 2 -1 -1 2 -1 -1 -1 -1 -1 2 3 4 4 4 -1 -1 -1 -1 4 4 -1 -1 -1 -1 4 12 1 1 1 -1 -1 -1 -1 1 1 -1 -1 -1 -1 1 7 6 6 6 -1 -1 -1 -1 6 6 -1 -1 -1 -1 6 5 2 2 -1 -1 -1 -1 -1 -1 5 -1 5 -1 -1 -1 -1 5 6 2 2 2 -1 -1 -1 -1 2 2 -1 -1 -1 -1 2 2 3 3 3 -1 -1 -1 -1 3 3 -1 -1 -1 -1 3 11 1 1 1 -1 -1 -1 -1 1 1 -1 -1 -1 -1 1 1 5 5 5 -1 -1 -1 -1 -1 -1 -1 -1 -1 -1 -1 -1 -1 -1 -1 -1 -1 -1 -1 -1 -1 -1 -1 -1 -1 -1 -1 -1 -1 1 1 -1 1 -1 1 -1 1 -1 1 -1 6 6 -1 6 -1 6 -1 6 -1 -1 -1 -1 2 2 -1 2 -1 2 -1 2 -1 -1 -1 -1 4 4 4 4 3 2 2 5 6 7 1 12 4 4 
SCALARS blocking_geom_dim int 1
LOOKUP_TABLE default
0 0 0 0 0 0 0 0 1 1 1 1 2 2 1 1 1 1 2 4 1 2 1 2 1 2 1 2 4 1 2 1 2 1 2 1 2 4 2 4 2 2 2 1 1 1 2 1 2 4 2 4 4 4 2 2 1 1 2 2 1 2 2 1 2 4 2 4 4 4 2 2 1 1 2 2 1 2 2 1 2 4 2 4 4 4 4 4 2 1 2 2 1 2 2 2 1 2 2 1 2 4 2 4 4 4 4 4 2 1 2 2 2 4 4 2 2 1 2 4 2 2 1 2 1 2 4 1 2 2 4 4 4 4 4 2 1 2 2 2 4 4 2 2 1 2 4 2 2 1 2 4 1 2 2 4 4 4 4 4 2 1 2 2 2 4 4 4 4 2 1 2 2 2 4 4 2 2 1 2 2 1 4 2 2 4 4 4 4 4 2 2 4 4 2 2 1 2 4 4 2 2 1 2 4 4 2 1 2 2 2 2 4 4 2 4 4 4 4 4 2 1 2 2 2 4 4 4 4 2 1 2 2 2 4 4 4 4 2 2 4 4 2 2 1 2 4 4 4 2 1 2 2 2 4 4 2 4 4 4 2 2 1 2 4 4 4 4 2 1 2 2 2 4 4 4 4 2 1 2 2 2 4 4 4 2 1 2 2 2 4 4 1 2 2 4 4 4 4 2 2 4 4 2 2 1 2 4 4 4 4 2 2 4 4 4 4 2 1 2 2 2 4 4 4 4 2 1 2 2 2 4 4 4 4 2 2 1 4 2 2 4 4 4 4 4 2 2 4 4 4 4 2 1 2 2 2 4 4 4 4 2 2 4 4 4 4 2 1 2 2 2 4 4 4 4 2 2 4 4 2 2 1 2 4 4 4 4 2 2 4 4 4 4 4 4 2 2 4 2 4 4 4 4 4 4 4 4 4 4 4 4 4 4 4 4 4 4 4 2 2 4 2 4 2 2 1 2 2 4 2 2 1 2 2 2 4 4 4 2 1 2 2 2 2 2 1 2 2 2 4 4 2 4 4 4 4 4 2 1 2 2 2 4 4 4 4 2 2 4 4 4 4 2 1 2 2 2 4 4 4 4 2 2 4 4 4 4 2 1 2 2 2 4 4 4 4 2 2 4 4 4 4 2 1 2 2 4 4 4 4 4 4 2 4 2 4 4 4 4 2 1 2 2 2 4 4 4 4 2 2 4 4 4 4 2 1 2 2 2 4 4 4 4 2 2 4 4 4 4 2 1 2 2 2 4 4 4 4 2 2 4 4 4 4 2 1 2 2 2 4 4 4 4 4 4 4 4 4 4 4 4 4 4 4 4 4 4 4 4 4 4 4 4 4 4 4 4 4 2 2 4 2 4 2 4 2 4 2 4 2 2 4 2 4 2 4 2 4 4 4 4 2 2 4 2 4 2 4 2 4 4 4 4 2 2 2 2 1 2 2 1 2 1 2 1 2 2 


CELL_DATA 1719
SCALARS GMDS_ID int 1
LOOKUP_TABLE default
0 1 2 3 4 5 6 7 8 9 10 11 12 13 14 15 16 17 18 19 20 21 22 23 24 25 26 27 28 29 30 31 32 33 34 35 36 37 38 39 40 41 42 43 44 45 46 47 48 49 50 51 52 53 54 55 56 57 58 59 60 61 62 63 64 65 66 67 68 69 70 71 72 73 74 75 76 77 78 79 80 81 82 83 84 85 86 87 88 89 90 91 92 93 94 95 96 97 98 99 100 101 102 103 104 105 106 107 108 109 110 111 112 113 114 115 116 117 118 119 120 121 122 123 124 125 126 127 128 129 130 131 132 133 134 135 136 137 138 139 140 141 142 143 144 145 146 147 148 149 150 151 152 153 154 155 156 157 158 159 160 161 162 163 164 165 166 167 168 169 170 171 172 173 174 175 176 177 178 179 180 181 182 183 184 185 186 187 188 189 190 191 192 193 194 195 196 197 198 199 200 201 202 203 204 205 206 207 208 209 210 211 212 213 214 215 216 217 218 219 220 221 222 223 224 225 226 227 228 229 230 231 232 233 234 235 236 237 238 239 240 241 242 243 244 245 246 247 248 249 250 251 252 253 254 255 256 257 258 259 260 261 262 263 264 265 266 267 268 269 270 271 272 273 274 275 276 277 278 279 280 281 282 283 284 285 286 287 288 289 290 291 292 293 294 295 296 297 298 299 300 301 302 303 304 305 306 307 308 309 310 311 312 313 314 315 316 317 318 319 320 321 322 323 324 325 326 327 328 329 330 331 332 333 334 335 336 337 338 339 340 341 342 343 344 345 346 347 348 349 350 351 352 353 354 355 356 357 358 359 360 361 362 363 364 365 366 367 368 369 370 371 372 373 374 375 376 377 378 379 380 381 382 383 384 385 386 387 388 389 390 391 392 393 394 395 396 397 398 399 400 401 402 403 404 405 406 407 408 409 410 411 412 413 414 415 416 417 418 419 420 421 422 423 424 425 426 427 428 429 430 431 432 433 434 435 436 437 438 439 440 441 442 443 444 445 446 447 448 449 450 451 452 453 454 455 456 457 458 459 460 461 462 463 464 465 466 467 468 469 470 471 472 473 474 475 476 477 478 479 480 481 482 483 484 485 486 487 488 489 490 491 492 493 494 495 496 497 498 499 500 501 502 503 504 505 506 507 508 509 510 511 512 513 514 515 516 517 518 519 520 521 522 523 524 525 526 527 528 529 530 531 532 533 534 535 536 537 538 539 540 541 542 543 544 545 546 547 548 549 550 551 552 553 554 555 556 557 558 559 560 561 562 563 564 565 566 567 568 569 570 571 572 573 574 575 576 577 578 579 580 581 582 583 584 585 586 587 588 589 590 591 592 593 594 595 596 597 598 599 600 601 602 603 604 605 606 607 608 609 610 611 612 613 614 615 616 617 618 619 620 621 622 623 624 625 626 627 628 629 630 631 632 633 634 635 636 637 638 639 640 641 642 643 644 645 646 647 648 649 650 651 652 653 654 655 656 657 658 659 660 661 662 663 664 665 666 667 668 669 670 671 672 673 674 675 676 677 678 679 680 681 682 683 684 685 686 687 688 689 690 691 692 693 694 695 696 697 698 699 700 701 702 703 704 705 706 707 708 709 710 711 712 713 714 715 716 717 718 719 720 721 722 723 724 725 726 727 728 729 730 731 732 733 734 735 736 737 738 739 740 741 742 743 744 745 746 747 748 749 750 751 752 753 754 755 756 757 758 759 760 761 762 763 764 765 766 767 768 769 770 771 772 773 774 775 776 777 778 779 780 781 782 783 784 785 786 787 788 789 790 791 792 793 794 795 796 797 798 799 800 801 802 803 804 805 806 807 808 809 810 811 812 813 814 815 816 817 818 819 820 821 822 823 824 825 826 827 828 829 830 831 832 833 834 835 836 837 838 839 840 841 842 843 844 845 846 847 848 849 850 851 852 853 854 855 856 857 858 859 860 861 862 863 864 865 866 867 868 869 870 871 872 873 874 875 876 877 878 879 880 881 882 883 884 885 886 887 888 889 890 891 892 893 894 895 896 897 898 899 900 901 902 903 904 905 906 907 908 909 910 911 912 913 914 915 916 917 918 919 920 921 922 923 924 925 926 927 928 929 930 931 932 933 934 935 936 937 938 939 940 941 942 943 944 945 946 947 948 949 950 951 952 953 954 955 956 957 958 959 960 961 962 963 964 965 966 967 968 969 970 971 972 973 974 975 976 977 978 979 980 981 982 983 984 985 986 987 988 989 990 991 992 993 994 995 996 997 998 999 1000 1001 1002 1003 1004 1005 1006 1007 1008 1009 1010 1011 1012 1013 1014 1015 1016 1017 1018 1019 1020 1021 1022 1023 1024 1025 1026 1027 1028 1029 1030 1031 1032 1033 1034 1035 1036 1037 1038 1039 1040 1041 1042 1043 1044 1045 1046 1047 1048 1049 1050 1051 1052 1053 1054 1055 1056 1057 1058 1059 1060 1061 1062 1063 1064 1065 1066 1067 1068 1069 1070 1071 1072 1073 1074 1075 1076 1077 1078 1079 1080 1081 1082 1083 1084 1085 1086 1087 1088 1089 1090 1091 1092 1093 1094 1095 1096 1097 1098 1099 1100 1101 1102 1103 1104 1105 1106 1107 1108 1109 1110 1111 1112 1113 1114 1115 1116 1117 1118 1119 1120 1121 1122 1123 1124 1125 1126 1127 1128 1129 1130 1131 1132 1133 1134 1135 1136 1137 1138 1139 1140 1141 1142 1143 1144 1145 1146 1147 1148 1149 1150 1151 1152 1153 1154 1155 1156 1157 1158 1159 1160 1161 1162 1163 1164 1165 1166 1167 1168 1169 1170 1171 1172 1173 1174 1175 1176 1177 1178 1179 1180 1181 1182 1183 1184 1185 1186 1187 1188 1189 1190 1191 1192 1193 1194 1195 1196 1197 1198 1199 1200 1201 1202 1203 1204 1205 1206 1207 1208 1209 1210 1211 1212 1213 1214 1215 1216 1217 1218 1219 1220 1221 1222 1223 1224 1225 1226 1227 1228 1229 1230 1231 1232 1233 1234 1235 1236 1237 1238 1239 1240 1241 1242 1243 1244 1245 1246 1247 1248 1249 1250 1251 1252 1253 1254 1255 1256 1257 1258 1259 1260 1261 1262 1263 1264 1265 1266 1267 1268 1269 1270 1271 1272 1273 1274 1275 1276 1277 1278 1279 1280 1281 1282 1283 1284 1285 1286 1287 1288 1289 1290 1291 1292 1293 1294 1295 1296 1297 1298 1299 1300 1301 1302 1303 1304 1305 1306 1307 1308 1309 1310 1311 1312 1313 1314 1315 1316 1317 1318 1319 1320 1321 1322 1323 1324 1325 1326 1327 1328 1329 1330 1331 1332 1333 1334 1335 1336 1337 1338 1339 1340 1341 1342 1343 1344 1345 1346 1347 1348 1349 1350 1351 1352 1353 1354 1355 1356 1357 1358 1359 1360 1361 1362 1363 1364 1365 1366 1367 1368 1369 1370 1371 1372 1373 1374 1375 1376 1377 1378 1379 1380 1381 1382 1383 1384 1385 1386 1387 1388 1389 1390 1391 1392 1393 1394 1395 1396 1397 1398 1399 1400 1401 1402 1403 1404 1405 1406 1407 1408 1409 1410 1411 1412 1413 1414 1415 1416 1417 1418 1419 1420 1421 1422 1423 1424 1425 1426 1427 1428 1429 1430 1431 1432 1433 1434 1435 1436 1437 1438 1439 1440 1441 1442 1443 1444 1445 1446 1447 1448 1449 1450 1451 1452 1453 1454 1455 1456 1457 1458 1459 1460 1461 1462 1463 1464 1465 1466 1467 1468 1469 1470 1471 1472 1473 1474 1475 1476 1477 1478 1479 1480 1481 1482 1483 1484 1485 1486 1487 1488 1489 1490 1491 1492 1493 1494 1495 1496 1497 1498 1499 1500 1501 1502 1503 1504 1505 1506 1507 1508 1509 1510 1511 1512 1513 1514 1515 1516 1517 1518 1519 1520 1521 1522 1523 1524 1525 1526 1527 1528 1529 1530 1531 1532 1533 1534 1535 1536 1537 1538 1539 1540 1541 1542 1543 1544 1545 1546 1547 1548 1549 1550 1551 1552 1553 1554 1555 1556 1557 1558 1559 1560 1561 1562 1563 1564 1565 1566 1567 1568 1569 1570 1571 1572 1573 1574 1575 1576 1577 1578 1579 1580 1581 1582 1583 1584 1585 1586 1587 1588 1589 1590 1591 1592 1593 1594 1595 1596 1597 1598 1599 1600 1601 1602 1603 1604 1605 1606 1607 1608 1609 1610 1611 1612 1613 1614 1615 1616 1617 1618 1619 1620 1621 1622 1623 1624 1625 1626 1627 1628 1629 1630 1631 1632 1633 1634 1635 1636 1637 1638 1639 1640 1641 1642 1643 1644 1645 1646 1647 1648 1649 1650 1651 1652 1653 1654 1655 1656 1657 1658 1659 1660 1661 1662 1663 1664 1665 1666 1667 1668 1669 1670 1671 1672 1673 1674 1675 1676 1677 1678 1679 1680 1681 1682 1683 1684 1685 1686 1687 1688 1689 1690 1691 1692 1693 1694 1695 1696 1697 1698 1699 1700 1701 1702 1703 1704 1705 1706 1707 1708 1709 1710 1711 1712 1713 1714 1715 1716 1717 1718 

SCALARS blocking_topo_id int 1
LOOKUP_TABLE default