# vtk DataFile Version 3.0
Generated by GMDS VTK Writer

ASCII
DATASET UNSTRUCTURED_GRID
POINTS 47 float
3 0 7
0 10 0
10 10 0
10 0 0
0 0 10
0 10 10
10 10 10
10 0 10
0 1 0
0 1 10
10 1 10
10 1 0
0 8 0
0 8 10
10 8 10
10 8 0
0 0 7
10 0 7
10 1 7
0 1 7
10 8 7
0 8 7
10 10 7
0 10 7
1 0 7
1 1 7
1 1 10
1 0 10
1 0 0
1 1 0
1 8 0
1 8 7
1 8 10
1 10 0
1 10 7
1 10 10
3 1 7
3 1 10
3 0 10
3 0 0
3 1 0
3 8 0
3 8 7
3 8 10
3 10 0
3 10 7
3 10 10

CELLS 17 153
8 24 25 26 27 16 19 9 4 
8 40 41 42 36 29 30 31 25 
8 18 20 14 10 36 42 43 37 
8 11 15 20 18 40 41 42 36 
8 39 40 36 0 28 29 25 24 
8 3 11 18 17 39 40 36 0 
8 0 36 37 38 24 25 26 27 
8 17 18 10 7 0 36 37 38 
8 29 30 31 25 8 12 21 19 
8 25 31 32 26 19 21 13 9 
8 33 30 31 34 1 12 21 23 
8 34 31 32 35 23 21 13 5 
8 36 42 43 37 25 31 32 26 
8 2 15 20 22 44 41 42 45 
8 44 41 42 45 33 30 31 34 
8 22 20 14 6 45 42 43 46 
8 45 42 43 46 34 31 32 35 

CELL_TYPES 17
12 
12 
12 
12 
12 
12 
12 
12 
12 
12 
12 
12 
12 
12 
12 
12 
12 
POINT_DATA 47
SCALARS GMDS_ID int 1
LOOKUP_TABLE default
0 1 2 3 4 5 6 7 8 9 10 11 12 13 14 15 16 17 18 19 20 21 22 23 24 25 26 27 28 29 30 31 32 33 34 35 36 37 38 39 40 41 42 43 44 45 46 
SCALARS geom_link_dim int 1
LOOKUP_TABLE default
3 1 1 1 0 1 1 1 1 1 2 2 2 2 2 2 0 2 3 2 3 1 2 1 2 2 1 1 1 1 3 0 3 2 2 2 0 3 2 2 3 3 0 3 2 1 2 
SCALARS geom_link_id int 1
LOOKUP_TABLE default
4 7 13 18 -1 2 9 10 8 1 14 11 12 17 14 11 -1 10 6 27 6 5 13 6 23 1 12 11 19 20 2 0 1 16 15 24 -1 1 9 8 2 2 -1 1 16 15 24 


CELL_DATA 17
SCALARS GMDS_ID int 1
LOOKUP_TABLE default
0 2 4 5 6 7 8 9 11 13 15 17 18 19 20 21 22 

SCALARS is_in int 1
LOOKUP_TABLE default
0 1 1 1 1 1 1 1 1 1 1 0 1 1 1 1 0 

SCALARS geom_link_dim int 1
LOOKUP_TABLE default
0 0 0 0 0 0 0 0 0 0 0 0 0 0 0 0 0 

SCALARS geom_link_id int 1
LOOKUP_TABLE default
0 -1 -1 -1 -1 -1 -1 -1 0 0 0 0 -1 -1 -1 -1 -1 

