# vtk DataFile Version 3.0
Generated by GMDS VTK Writer

ASCII
DATASET UNSTRUCTURED_GRID
POINTS 45 float
3 0 7
0 10 0
10 10 0
10 0 0
0 10 10
10 10 10
10 0 10
0 1 0
0 1 10
10 1 10
10 1 0
0 8 0
0 8 10
10 8 10
10 8 0
10 0 7
10 1 7
0 1 7
10 8 7
0 8 7
10 10 7
0 10 7
1 0 7
1 1 7
1 1 10
1 0 10
1 0 0
1 1 0
1 8 0
1 8 7
1 8 10
1 10 0
1 10 7
1 10 10
3 1 7
3 1 10
3 0 10
3 0 0
3 1 0
3 8 0
3 8 7
3 8 10
3 10 0
3 10 7
3 10 10

CELLS 16 144
8 38 39 40 34 27 28 29 23 
8 16 18 13 9 34 40 41 35 
8 10 14 18 16 38 39 40 34 
8 37 38 34 0 26 27 23 22 
8 3 10 16 15 37 38 34 0 
8 0 34 35 36 22 23 24 25 
8 15 16 9 6 0 34 35 36 
8 27 28 29 23 7 11 19 17 
8 23 29 30 24 17 19 12 8 
8 31 28 29 32 1 11 19 21 
8 32 29 30 33 21 19 12 4 
8 34 40 41 35 23 29 30 24 
8 2 14 18 20 42 39 40 43 
8 42 39 40 43 31 28 29 32 
8 20 18 13 5 43 40 41 44 
8 43 40 41 44 32 29 30 33 

CELL_TYPES 16
12 
12 
12 
12 
12 
12 
12 
12 
12 
12 
12 
12 
12 
12 
12 
12 
POINT_DATA 45
SCALARS GMDS_ID int 1
LOOKUP_TABLE default
0 1 2 3 5 6 7 8 9 10 11 12 13 14 15 17 18 19 20 21 22 23 24 25 26 27 28 29 30 31 32 33 34 35 36 37 38 39 40 41 42 43 44 45 46 
SCALARS geom_link_dim int 1
LOOKUP_TABLE default
3 1 1 1 1 1 1 1 1 2 2 2 2 2 2 2 3 2 3 1 2 1 2 2 1 1 1 1 3 0 3 2 2 2 0 3 2 2 3 3 0 3 2 1 2 
SCALARS geom_link_id int 1
LOOKUP_TABLE default
4 7 13 18 2 9 10 8 1 14 11 12 17 14 11 10 6 27 6 5 13 6 23 1 12 11 19 20 2 0 1 16 15 24 0 1 9 8 2 2 0 1 16 15 24 


CELL_DATA 16
SCALARS GMDS_ID int 1
LOOKUP_TABLE default
2 4 5 6 7 8 9 11 13 15 17 18 19 20 21 22 

SCALARS is_in int 1
LOOKUP_TABLE default
1 1 1 1 1 1 1 1 1 1 0 1 1 1 1 0 

SCALARS geom_link_dim int 1
LOOKUP_TABLE default
0 0 0 0 0 0 0 0 0 0 0 0 0 0 0 0 

SCALARS geom_link_id int 1
LOOKUP_TABLE default
0 0 0 0 0 0 0 0 0 0 0 0 0 0 0 0 

