# vtk DataFile Version 3.0
Generated by GMDS VTK Writer

ASCII
DATASET UNSTRUCTURED_GRID
POINTS 16 float
0 0 0
0 10 0
10 10 0
10 0 0
0 0 10
0 10 10
10 10 10
10 0 10
0 1 0
0 1 10
10 1 10
10 1 0
0 8 0
0 8 10
10 8 10
10 8 0

CELLS 3 27
8 8 9 10 11 12 13 14 15 
8 0 4 7 3 8 9 10 11 
8 12 13 14 15 1 5 6 2 

CELL_TYPES 3
12 
12 
12 
POINT_DATA 16
SCALARS GMDS_ID int 1
LOOKUP_TABLE default
0 1 2 3 4 5 6 7 8 9 10 11 12 13 14 15 
SCALARS geom_link_dim int 1
LOOKUP_TABLE default
0 1 1 1 0 1 1 1 1 1 2 2 2 2 2 2 
SCALARS geom_link_id int 1
LOOKUP_TABLE default
-1 7 13 18 -1 2 9 10 8 1 14 11 12 17 14 11 


CELL_DATA 3
SCALARS GMDS_ID int 1
LOOKUP_TABLE default
0 1 3 

SCALARS is_in int 1
LOOKUP_TABLE default
1 1 1 

SCALARS geom_link_dim int 1
LOOKUP_TABLE default
0 0 0 

SCALARS geom_link_id int 1
LOOKUP_TABLE default
-1 0 -1 

