# vtk DataFile Version 3.0
Generated by GMDS VTK Writer

ASCII
DATASET UNSTRUCTURED_GRID
POINTS 36 float
0 0 0
0 10 0
10 10 0
10 0 0
0 0 10
0 10 10
10 10 10
10 0 10
0 0 7
10 0 7
10 10 7
0 10 7
3 0 0
3 10 0
3 10 7
3 0 7
3 10 10
3 0 10
0 8 0
0 8 7
3 8 7
3 8 0
10 8 7
10 8 0
0 8 10
3 8 10
10 8 10
0 1 0
0 1 7
3 1 7
3 1 0
10 1 7
10 1 0
0 1 10
3 1 10
10 1 10

CELLS 12 108
8 30 29 31 32 21 20 22 23 
8 18 19 20 21 1 11 14 13 
8 12 15 9 3 30 29 31 32 
8 27 28 29 30 18 19 20 21 
8 0 8 15 12 27 28 29 30 
8 21 20 22 23 13 14 10 2 
8 24 19 20 25 5 11 14 16 
8 25 20 22 26 16 14 10 6 
8 4 8 15 17 33 28 29 34 
8 33 28 29 34 24 19 20 25 
8 17 15 9 7 34 29 31 35 
8 34 29 31 35 25 20 22 26 

CELL_TYPES 12
12 
12 
12 
12 
12 
12 
12 
12 
12 
12 
12 
12 
POINT_DATA 36
SCALARS GMDS_ID int 1
LOOKUP_TABLE default
0 1 2 3 4 5 6 7 8 9 10 11 12 13 14 15 16 17 18 19 20 21 22 23 24 25 26 27 28 29 30 31 32 33 34 35 
SCALARS geom_link_dim int 1
LOOKUP_TABLE default
0 1 1 1 0 1 1 1 0 2 2 1 2 2 1 3 2 2 2 1 0 3 3 2 2 3 2 1 2 0 3 3 2 1 3 2 
SCALARS geom_link_id int 1
LOOKUP_TABLE default
-1 7 13 18 -1 2 9 10 -1 10 13 6 8 16 15 4 24 9 12 5 0 2 6 11 17 1 14 8 27 -1 2 6 11 1 1 14 


CELL_DATA 12
SCALARS GMDS_ID int 1
LOOKUP_TABLE default
0 1 3 4 5 7 9 11 12 13 14 15 

SCALARS is_in int 1
LOOKUP_TABLE default
1 1 1 1 1 1 0 1 1 1 1 1 

SCALARS geom_link_dim int 1
LOOKUP_TABLE default
0 0 0 0 0 0 0 0 0 0 0 0 

SCALARS geom_link_id int 1
LOOKUP_TABLE default
-1 0 -1 -1 -1 0 0 0 -1 -1 -1 -1 

