# vtk DataFile Version 3.0
Generated by GMDS VTK Writer

ASCII
DATASET UNSTRUCTURED_GRID
POINTS 64 float
0 0 0
0 10 0
10 10 0
10 0 0
0 0 10
0 10 10
10 10 10
10 0 10
0 1 0
0 1 10
10 1 10
10 1 0
0 0 7
10 0 7
10 1 7
0 1 7
10 10 7
0 10 7
0 8 0
10 8 0
10 8 7
0 8 7
10 8 10
0 8 10
0 0 9
10 0 9
10 1 9
0 1 9
0 10 9
10 10 9
10 8 9
0 8 9
1 0 0
1 1 0
1 1 7
1 0 7
1 8 0
1 8 7
1 10 0
1 10 7
1 0 9
1 1 9
1 0 10
1 1 10
1 10 10
1 8 10
1 8 9
1 10 9
3 0 0
3 1 0
3 1 7
3 0 7
3 8 0
3 8 7
3 10 0
3 10 7
3 0 9
3 1 9
3 0 10
3 1 10
3 10 10
3 8 10
3 8 9
3 10 9

CELLS 27 243
8 7 10 26 25 58 59 57 56 
8 56 57 50 51 40 41 34 35 
8 25 26 14 13 56 57 50 51 
8 54 55 53 52 38 39 37 36 
8 2 16 20 19 54 55 53 52 
8 32 33 34 35 0 8 15 12 
8 52 53 50 49 36 37 34 33 
8 19 20 14 11 52 53 50 49 
8 48 49 50 51 32 33 34 35 
8 3 11 14 13 48 49 50 51 
8 36 37 34 33 18 21 15 8 
8 38 39 37 36 1 17 21 18 
8 40 41 34 35 24 27 15 12 
8 42 43 41 40 4 9 27 24 
8 44 45 46 47 5 23 31 28 
8 47 46 37 39 28 31 21 17 
8 43 45 46 41 9 23 31 27 
8 41 46 37 34 27 31 21 15 
8 58 59 57 56 42 43 41 40 
8 6 22 30 29 60 61 62 63 
8 60 61 62 63 44 45 46 47 
8 29 30 20 16 63 62 53 55 
8 63 62 53 55 47 46 37 39 
8 10 22 30 26 59 61 62 57 
8 59 61 62 57 43 45 46 41 
8 26 30 20 14 57 62 53 50 
8 57 62 53 50 41 46 37 34 

CELL_TYPES 27
12 
12 
12 
12 
12 
12 
12 
12 
12 
12 
12 
12 
12 
12 
12 
12 
12 
12 
12 
12 
12 
12 
12 
12 
12 
12 
12 
POINT_DATA 64
SCALARS GMDS_ID int 1
LOOKUP_TABLE default
0 1 2 3 4 5 6 7 8 9 10 11 12 13 14 15 16 17 18 19 20 21 22 23 24 25 26 27 28 29 30 31 32 33 34 35 36 37 38 39 40 41 42 43 44 45 46 47 48 49 50 51 52 53 54 55 56 57 58 59 60 61 62 63 
SCALARS geom_link_dim int 1
LOOKUP_TABLE default
0 1 1 1 0 1 1 1 1 1 2 2 0 2 3 2 2 1 2 2 3 1 2 2 0 2 3 2 1 2 3 1 1 1 0 2 3 0 2 2 2 0 1 1 2 3 0 2 2 3 0 3 3 0 2 1 3 0 2 3 2 3 0 1 
SCALARS geom_link_id int 1
LOOKUP_TABLE default
-1 7 13 18 -1 2 9 10 8 1 14 11 -1 10 6 27 13 6 12 11 6 5 14 17 -1 10 6 27 3 13 6 4 19 20 0 23 2 0 16 15 23 0 11 12 24 1 0 25 8 2 -1 4 2 -1 16 15 4 -1 9 1 24 1 -1 14 


CELL_DATA 27
SCALARS GMDS_ID int 1
LOOKUP_TABLE default
0 1 2 4 5 6 8 9 10 11 12 14 16 18 20 22 24 26 27 28 29 30 31 32 33 34 35 

SCALARS is_in int 1
LOOKUP_TABLE default
1 1 1 1 1 0 1 1 1 1 1 1 0 0 1 0 1 1 1 1 1 1 0 1 1 1 1 

SCALARS geom_link_dim int 1
LOOKUP_TABLE default
0 0 0 0 0 0 0 0 0 0 0 0 0 0 0 0 0 0 0 0 0 0 0 0 0 0 0 

SCALARS geom_link_id int 1
LOOKUP_TABLE default
-1 -1 -1 -1 -1 0 -1 -1 -1 -1 0 0 0 0 0 0 0 0 -1 -1 -1 -1 -1 -1 -1 -1 -1 

