# vtk DataFile Version 3.0
Generated by GMDS VTK Writer

ASCII
DATASET UNSTRUCTURED_GRID
POINTS 47 float
0 0 0
0 10 0
10 10 0
10 0 0
0 10 10
10 10 10
10 0 10
0 0 7
10 0 7
10 10 7
0 10 7
3 0 0
3 10 0
3 10 7
3 0 7
3 10 10
3 0 10
0 8 0
0 8 7
3 8 7
3 8 0
10 8 7
10 8 0
0 8 10
3 8 10
10 8 10
0 1 0
0 1 7
3 1 7
3 1 0
10 1 7
10 1 0
0 1 10
3 1 10
10 1 10
1 8 0
1 8 7
1 10 7
1 10 0
1 1 0
1 1 7
1 0 0
1 0 7
1 8 10
1 10 10
1 0 10
1 1 10

CELLS 17 153
8 29 28 30 31 20 19 21 22 
8 39 40 36 35 29 28 19 20 
8 11 14 8 3 29 28 30 31 
8 26 27 18 17 39 40 36 35 
8 20 19 21 22 12 13 9 2 
8 35 36 37 38 20 19 13 12 
8 17 18 10 1 35 36 37 38 
8 24 19 21 25 15 13 9 5 
8 16 14 8 6 33 28 30 34 
8 33 28 30 34 24 19 21 25 
8 0 7 27 26 41 42 40 39 
8 41 42 40 39 11 14 28 29 
8 23 18 10 4 43 36 37 44 
8 43 36 37 44 24 19 13 15 
8 45 42 40 46 16 14 28 33 
8 32 27 18 23 46 40 36 43 
8 46 40 36 43 33 28 19 24 

CELL_TYPES 17
12 
12 
12 
12 
12 
12 
12 
12 
12 
12 
12 
12 
12 
12 
12 
12 
12 
POINT_DATA 47
SCALARS GMDS_ID int 1
LOOKUP_TABLE default
0 1 2 3 5 6 7 8 9 10 11 12 13 14 15 16 17 18 19 20 21 22 23 24 25 26 27 28 29 30 31 32 33 34 35 36 37 38 39 40 41 42 43 44 45 46 47 
SCALARS geom_link_dim int 1
LOOKUP_TABLE default
0 1 1 1 1 1 1 0 2 2 1 2 2 1 3 2 2 2 1 0 3 3 2 2 3 2 1 2 0 3 3 2 1 3 2 3 0 2 2 1 2 1 2 3 2 1 1 
SCALARS geom_link_id int 1
LOOKUP_TABLE default
-1 7 13 18 2 9 10 -1 10 13 6 8 16 15 4 24 9 12 5 0 2 6 11 17 1 14 8 27 0 2 6 11 1 1 14 2 0 15 16 20 1 19 23 1 24 11 12 


CELL_DATA 17
SCALARS GMDS_ID int 1
LOOKUP_TABLE default
0 2 3 6 7 8 10 11 14 15 16 17 18 19 21 22 23 

SCALARS is_in int 1
LOOKUP_TABLE default
1 1 1 1 1 1 1 1 1 1 0 1 0 0 1 1 1 

SCALARS geom_link_dim int 1
LOOKUP_TABLE default
0 0 0 0 0 0 0 0 0 0 0 0 0 0 0 0 0 

SCALARS geom_link_id int 1
LOOKUP_TABLE default
0 0 0 0 0 0 0 0 0 0 0 0 0 0 0 0 0 

