# vtk DataFile Version 3.0
Generated by GMDS VTK Writer

ASCII
DATASET UNSTRUCTURED_GRID
POINTS 60 float
0 10 0
10 10 0
10 0 0
0 10 10
10 10 10
10 0 10
3 0 0
3 10 0
3 10 10
3 0 10
0 1 0
0 1 10
3 1 10
3 1 0
10 1 10
10 1 0
3 0 9
3 1 9
0 1 9
3 10 9
0 10 9
10 0 9
10 1 9
10 10 9
0 8 0
3 8 0
3 8 9
0 8 9
3 8 10
0 8 10
10 8 0
10 8 9
10 8 10
3 0 7
3 1 7
0 1 7
0 8 7
3 8 7
10 0 7
10 1 7
0 10 7
3 10 7
10 10 7
10 8 7
1 0 9
1 1 9
1 1 10
1 0 10
1 0 7
1 1 7
1 0 0
1 1 0
1 10 10
1 10 9
1 8 9
1 8 10
1 8 0
1 8 7
1 10 0
1 10 7

CELLS 22 198
8 50 51 49 48 6 13 34 33 
8 48 49 45 44 33 34 17 16 
8 21 16 17 22 5 9 12 14 
8 44 45 46 47 16 17 12 9 
8 23 19 8 4 31 26 28 32 
8 31 26 28 32 22 17 12 14 
8 2 6 13 15 38 33 34 39 
8 38 33 34 39 21 16 17 22 
8 1 7 25 30 42 41 37 43 
8 42 41 37 43 23 19 26 31 
8 30 25 13 15 43 37 34 39 
8 43 37 34 39 31 26 17 22 
8 3 20 27 29 52 53 54 55 
8 52 53 54 55 8 19 26 28 
8 29 27 18 11 55 54 45 46 
8 55 54 45 46 28 26 17 12 
8 10 24 36 35 51 56 57 49 
8 51 56 57 49 13 25 37 34 
8 35 36 27 18 49 57 54 45 
8 49 57 54 45 34 37 26 17 
8 0 24 36 40 58 56 57 59 
8 58 56 57 59 7 25 37 41 

CELL_TYPES 22
12 
12 
12 
12 
12 
12 
12 
12 
12 
12 
12 
12 
12 
12 
12 
12 
12 
12 
12 
12 
12 
12 
POINT_DATA 60
SCALARS GMDS_ID int 1
LOOKUP_TABLE default
1 2 3 5 6 7 8 9 10 11 12 13 14 15 16 17 19 20 21 22 23 24 25 26 27 28 29 30 31 32 33 34 35 37 38 39 40 41 42 43 44 45 46 47 48 49 50 51 52 53 54 55 56 57 58 59 60 61 62 63 
SCALARS geom_link_dim int 1
LOOKUP_TABLE default
1 1 1 1 1 1 2 2 2 2 1 1 3 3 2 2 3 3 2 1 1 2 3 2 2 3 1 1 3 2 2 3 2 3 4 2 1 1 2 3 1 1 2 3 2 2 1 1 2 2 1 1 2 2 2 3 3 2 2 2 
SCALARS geom_link_id int 1
LOOKUP_TABLE default
7 13 18 2 9 10 8 16 24 9 8 1 1 2 14 11 4 1 27 14 3 10 6 13 12 2 16 4 1 17 11 6 14 4 1 27 5 17 10 6 6 15 13 6 23 1 12 11 23 1 19 20 24 25 2 1 2 5 16 15 


CELL_DATA 22
SCALARS GMDS_ID int 1
LOOKUP_TABLE default
2 8 9 12 14 15 16 17 20 21 22 23 24 25 26 27 28 29 30 31 32 33 

SCALARS is_in int 1
LOOKUP_TABLE default
1 1 1 1 1 1 1 1 1 1 1 1 1 1 1 1 1 1 1 1 1 1 

SCALARS geom_link_dim int 1
LOOKUP_TABLE default
4 4 4 4 4 4 4 4 4 4 4 4 4 4 4 4 4 4 4 4 4 4 

SCALARS geom_link_id int 1
LOOKUP_TABLE default
1 1 1 1 1 1 1 1 1 1 1 1 1 1 1 1 1 1 1 1 1 1 

