# vtk DataFile Version 3.0
Generated by GMDS VTK Writer

ASCII
DATASET UNSTRUCTURED_GRID
POINTS 62 float
0 10 0
10 10 0
10 0 0
0 0 10
0 10 10
10 10 10
10 0 10
3 0 0
3 10 0
3 10 10
3 0 10
0 1 0
0 1 10
3 1 10
3 1 0
10 1 10
10 1 0
0 0 9
3 0 9
3 1 9
0 1 9
3 10 9
0 10 9
10 0 9
10 1 9
10 10 9
0 8 0
3 8 0
3 8 9
0 8 9
3 8 10
0 8 10
10 8 0
10 8 9
10 8 10
3 0 7
3 1 7
0 1 7
0 8 7
3 8 7
10 0 7
10 1 7
0 10 7
3 10 7
10 10 7
10 8 7
1 0 9
1 1 9
1 1 10
1 0 10
1 0 7
1 1 7
1 0 0
1 1 0
1 10 10
1 10 9
1 8 9
1 8 10
1 8 0
1 8 7
1 10 0
1 10 7

CELLS 25 225
8 52 53 51 50 7 14 36 35 
8 50 51 47 46 35 36 19 18 
8 23 18 19 24 6 10 13 15 
8 46 47 48 49 18 19 13 10 
8 17 20 12 3 46 47 48 49 
8 25 21 9 5 33 28 30 34 
8 33 28 30 34 24 19 13 15 
8 2 7 14 16 40 35 36 41 
8 40 35 36 41 23 18 19 24 
8 1 8 27 32 44 43 39 45 
8 44 43 39 45 25 21 28 33 
8 32 27 14 16 45 39 36 41 
8 45 39 36 41 33 28 19 24 
8 4 22 29 31 54 55 56 57 
8 54 55 56 57 9 21 28 30 
8 31 29 20 12 57 56 47 48 
8 57 56 47 48 30 28 19 13 
8 11 26 38 37 53 58 59 51 
8 53 58 59 51 14 27 39 36 
8 37 38 29 20 51 59 56 47 
8 51 59 56 47 36 39 28 19 
8 0 26 38 42 60 58 59 61 
8 60 58 59 61 8 27 39 43 
8 42 38 29 22 61 59 56 55 
8 61 59 56 55 43 39 28 21 

CELL_TYPES 25
12 
12 
12 
12 
12 
12 
12 
12 
12 
12 
12 
12 
12 
12 
12 
12 
12 
12 
12 
12 
12 
12 
12 
12 
12 
POINT_DATA 62
SCALARS GMDS_ID int 1
LOOKUP_TABLE default
1 2 3 4 5 6 7 8 9 10 11 12 13 14 15 16 17 18 19 20 21 22 23 24 25 26 27 28 29 30 31 32 33 34 35 37 38 39 40 41 42 43 44 45 46 47 48 49 50 51 52 53 54 55 56 57 58 59 60 61 62 63 
SCALARS geom_link_dim int 1
LOOKUP_TABLE default
1 1 1 0 1 1 1 2 2 2 2 1 1 3 3 2 2 0 3 0 2 1 1 2 3 2 2 3 0 1 3 2 2 3 2 3 0 2 1 0 2 3 1 1 2 3 2 2 1 1 2 2 1 1 2 2 0 3 3 0 2 2 
SCALARS geom_link_id int 1
LOOKUP_TABLE default
7 13 18 -1 2 9 10 8 16 24 9 8 1 1 2 14 11 -1 4 0 27 14 3 10 6 13 12 2 0 4 1 17 11 6 14 4 0 27 5 0 10 6 6 15 13 6 23 1 12 11 23 1 19 20 24 25 0 1 2 0 16 15 


CELL_DATA 25
SCALARS GMDS_ID int 1
LOOKUP_TABLE default
2 8 9 12 13 14 15 16 17 20 21 22 23 24 25 26 27 28 29 30 31 32 33 34 35 

SCALARS is_in int 1
LOOKUP_TABLE default
1 1 1 1 0 1 1 1 1 1 1 1 1 1 1 1 1 1 1 1 1 1 1 0 0 

SCALARS geom_link_dim int 1
LOOKUP_TABLE default
0 0 0 0 0 0 0 0 0 0 0 0 0 0 0 0 0 0 0 0 0 0 0 0 0 

SCALARS geom_link_id int 1
LOOKUP_TABLE default
0 0 0 0 0 0 0 0 0 0 0 0 0 0 0 0 0 0 0 0 0 0 0 0 0 

