# vtk DataFile Version 3.0
Generated by GMDS VTK Writer

ASCII
DATASET UNSTRUCTURED_GRID
POINTS 35 float
0 10 0
10 10 0
10 0 0
0 0 10
0 10 10
10 10 10
10 0 10
0 1 0
0 1 10
10 1 10
10 1 0
0 8 0
0 8 10
10 8 10
10 8 0
0 0 7
10 0 7
10 1 7
0 1 7
10 8 7
0 8 7
10 10 7
0 10 7
1 0 7
1 1 7
1 1 10
1 0 10
1 0 0
1 1 0
1 8 0
1 8 7
1 8 10
1 10 0
1 10 7
1 10 10

CELLS 11 99
8 23 24 25 26 15 18 8 3 
8 2 10 17 16 27 28 24 23 
8 16 17 9 6 23 24 25 26 
8 10 14 19 17 28 29 30 24 
8 28 29 30 24 7 11 20 18 
8 17 19 13 9 24 30 31 25 
8 24 30 31 25 18 20 12 8 
8 1 14 19 21 32 29 30 33 
8 32 29 30 33 0 11 20 22 
8 21 19 13 5 33 30 31 34 
8 33 30 31 34 22 20 12 4 

CELL_TYPES 11
12 
12 
12 
12 
12 
12 
12 
12 
12 
12 
12 
POINT_DATA 35
SCALARS GMDS_ID int 1
LOOKUP_TABLE default
1 2 3 4 5 6 7 8 9 10 11 12 13 14 15 16 17 18 19 20 21 22 23 24 25 26 27 28 29 30 31 32 33 34 35 
SCALARS geom_link_dim int 1
LOOKUP_TABLE default
1 1 1 0 1 1 1 1 1 2 2 2 2 2 2 0 2 3 2 3 1 2 1 2 2 1 1 1 1 3 0 3 2 2 2 
SCALARS geom_link_id int 1
LOOKUP_TABLE default
7 13 18 -1 2 9 10 8 1 14 11 12 17 14 11 -1 10 6 27 6 5 13 6 23 1 12 11 19 20 2 0 1 16 15 24 


CELL_DATA 11
SCALARS GMDS_ID int 1
LOOKUP_TABLE default
0 1 3 10 11 12 13 14 15 16 17 

SCALARS is_in int 1
LOOKUP_TABLE default
0 1 1 1 1 1 1 1 1 1 0 

SCALARS geom_link_dim int 1
LOOKUP_TABLE default
0 0 0 0 0 0 0 0 0 0 0 

SCALARS geom_link_id int 1
LOOKUP_TABLE default
0 0 0 0 0 0 0 0 0 0 0 

