# vtk DataFile Version 3.0
Generated by GMDS VTK Writer

ASCII
DATASET UNSTRUCTURED_GRID
POINTS 60 float
3 0 7
0 10 0
10 10 0
10 0 0
3 1 9
0 10 10
10 10 10
10 0 10
0 1 0
0 1 10
10 1 10
10 1 0
0 8 0
0 8 10
10 8 10
10 8 0
3 0 9
10 0 7
10 1 7
0 1 7
10 8 7
0 8 7
10 10 7
0 10 7
1 0 7
1 1 7
1 1 10
1 0 10
1 0 0
1 1 0
1 8 0
1 8 7
1 8 10
1 10 0
1 10 7
1 10 10
3 1 7
3 1 10
3 0 10
3 0 0
3 1 0
3 8 0
3 8 7
3 8 10
3 10 0
3 10 7
3 10 10
1 1 9
1 0 9
10 0 9
10 1 9
1 8 9
0 8 9
0 1 9
1 10 9
0 10 9
10 8 9
3 8 9
10 10 9
3 10 9

CELLS 23 207
8 0 36 25 24 16 4 47 48 
8 47 51 52 53 26 32 13 9 
8 40 41 42 36 29 30 31 25 
8 31 34 23 21 51 54 55 52 
8 11 15 20 18 40 41 42 36 
8 39 40 36 0 28 29 25 24 
8 3 11 18 17 39 40 36 0 
8 25 31 21 19 47 51 52 53 
8 29 30 31 25 8 12 21 19 
8 49 50 4 16 7 10 37 38 
8 17 18 36 0 49 50 4 16 
8 33 30 31 34 1 12 21 23 
8 16 4 47 48 38 37 26 27 
8 2 15 20 22 44 41 42 45 
8 44 41 42 45 33 30 31 34 
8 51 54 55 52 32 35 5 13 
8 18 20 42 36 50 56 57 4 
8 50 56 57 4 10 14 43 37 
8 36 42 31 25 4 57 51 47 
8 4 57 51 47 37 43 32 26 
8 20 22 45 42 56 58 59 57 
8 56 58 59 57 14 6 46 43 
8 57 59 54 51 43 46 35 32 

CELL_TYPES 23
12 
12 
12 
12 
12 
12 
12 
12 
12 
12 
12 
12 
12 
12 
12 
12 
12 
12 
12 
12 
12 
12 
12 
POINT_DATA 60
SCALARS GMDS_ID int 1
LOOKUP_TABLE default
0 1 2 3 4 5 6 7 8 9 10 11 12 13 14 15 16 17 18 19 20 21 22 23 24 25 26 27 28 29 30 31 32 33 34 35 36 37 38 39 40 41 42 43 44 45 46 47 48 49 50 51 52 53 54 55 56 57 58 59 
SCALARS geom_link_dim int 1
LOOKUP_TABLE default
3 1 1 1 0 1 1 1 1 1 2 2 2 2 2 2 3 2 3 2 3 1 2 1 2 2 1 1 1 1 3 2 3 2 2 2 0 3 2 2 3 3 1 3 2 1 2 2 2 2 3 2 1 2 2 1 3 1 2 1 
SCALARS geom_link_id int 1
LOOKUP_TABLE default
4 7 13 18 0 2 9 10 8 1 14 11 12 17 14 11 4 10 6 27 6 5 13 6 23 1 12 11 19 20 2 5 1 16 15 24 0 1 9 8 2 2 17 1 16 15 24 1 23 10 6 2 4 27 25 3 6 16 13 14 


CELL_DATA 23
SCALARS GMDS_ID int 1
LOOKUP_TABLE default
0 1 2 3 5 6 7 10 11 12 14 15 16 19 20 23 24 25 26 27 28 29 31 

SCALARS is_in int 1
LOOKUP_TABLE default
1 1 1 0 1 1 1 1 1 1 1 1 1 1 1 1 1 1 1 1 1 1 1 

SCALARS geom_link_dim int 1
LOOKUP_TABLE default
0 0 0 0 0 0 0 0 0 0 0 0 0 0 0 0 0 0 0 0 0 0 0 

SCALARS geom_link_id int 1
LOOKUP_TABLE default
0 0 0 0 0 0 0 0 0 0 0 0 0 0 0 0 0 0 0 0 0 0 0 

