# vtk DataFile Version 3.0
Generated by GMDS VTK Writer

ASCII
DATASET UNSTRUCTURED_GRID
POINTS 48 float
0 0 0
0 10 0
10 10 0
10 0 0
0 0 10
0 10 10
10 10 10
10 0 10
0 0 7
10 0 7
10 10 7
0 10 7
3 0 0
3 10 0
3 10 7
3 0 7
3 10 10
3 0 10
0 8 0
0 8 7
3 8 7
3 8 0
10 8 7
10 8 0
0 8 10
3 8 10
10 8 10
0 1 0
0 1 7
3 1 7
3 1 0
10 1 7
10 1 0
0 1 10
3 1 10
10 1 10
1 8 0
1 8 7
1 10 7
1 10 0
1 1 0
1 1 7
1 0 0
1 0 7
1 8 10
1 10 10
1 0 10
1 1 10

CELLS 18 162
8 30 29 31 32 21 20 22 23 
8 40 41 37 36 30 29 20 21 
8 12 15 9 3 30 29 31 32 
8 27 28 19 18 40 41 37 36 
8 21 20 22 23 13 14 10 2 
8 36 37 38 39 21 20 14 13 
8 18 19 11 1 36 37 38 39 
8 25 20 22 26 16 14 10 6 
8 17 15 9 7 34 29 31 35 
8 34 29 31 35 25 20 22 26 
8 0 8 28 27 42 43 41 40 
8 42 43 41 40 12 15 29 30 
8 24 19 11 5 44 37 38 45 
8 44 37 38 45 25 20 14 16 
8 4 8 28 33 46 43 41 47 
8 46 43 41 47 17 15 29 34 
8 33 28 19 24 47 41 37 44 
8 47 41 37 44 34 29 20 25 

CELL_TYPES 18
12 
12 
12 
12 
12 
12 
12 
12 
12 
12 
12 
12 
12 
12 
12 
12 
12 
12 
POINT_DATA 48
SCALARS GMDS_ID int 1
LOOKUP_TABLE default
0 1 2 3 4 5 6 7 8 9 10 11 12 13 14 15 16 17 18 19 20 21 22 23 24 25 26 27 28 29 30 31 32 33 34 35 36 37 38 39 40 41 42 43 44 45 46 47 
SCALARS geom_link_dim int 1
LOOKUP_TABLE default
0 1 1 1 0 1 1 1 0 2 2 1 2 2 1 3 2 2 2 1 0 3 3 2 2 3 2 1 2 0 3 3 2 1 3 2 3 0 2 2 1 0 1 2 3 2 1 1 
SCALARS geom_link_id int 1
LOOKUP_TABLE default
-1 7 13 18 -1 2 9 10 -1 10 13 6 8 16 15 4 24 9 12 5 0 2 6 11 17 1 14 8 27 0 2 6 11 1 1 14 2 -1 15 16 20 -1 19 23 1 24 11 12 


CELL_DATA 18
SCALARS GMDS_ID int 1
LOOKUP_TABLE default
0 2 3 6 7 8 10 11 14 15 16 17 18 19 20 21 22 23 

SCALARS is_in int 1
LOOKUP_TABLE default
1 1 1 1 1 1 1 1 1 1 0 1 0 0 0 1 1 1 

SCALARS geom_link_dim int 1
LOOKUP_TABLE default
0 0 0 0 0 0 0 0 0 0 0 0 0 0 0 0 0 0 

SCALARS geom_link_id int 1
LOOKUP_TABLE default
0 -1 0 -1 0 -1 -1 0 0 0 -1 -1 -1 -1 -1 -1 -1 -1 

