# vtk DataFile Version 3.0
Generated by GMDS VTK Writer

ASCII
DATASET UNSTRUCTURED_GRID
POINTS 48 float
0 0 0
0 10 0
10 10 0
10 0 0
0 0 10
0 10 10
10 10 10
10 0 10
3 0 0
3 10 0
3 10 10
3 0 10
0 1 0
0 1 10
3 1 10
3 1 0
10 1 10
10 1 0
0 0 9
3 0 9
3 1 9
0 1 9
3 10 9
0 10 9
10 0 9
10 1 9
10 10 9
0 8 0
3 8 0
3 8 9
0 8 9
3 8 10
0 8 10
10 8 0
10 8 9
10 8 10
0 0 7
3 0 7
3 1 7
0 1 7
0 8 7
3 8 7
10 0 7
10 1 7
0 10 7
3 10 7
10 10 7
10 8 7

CELLS 18 162
8 30 29 31 32 21 20 14 13 
8 18 19 20 21 4 11 14 13 
8 23 22 10 5 30 29 31 32 
8 40 41 38 39 30 29 20 21 
8 27 28 15 12 40 41 38 39 
8 24 19 20 25 7 11 14 16 
8 36 37 38 39 18 19 20 21 
8 0 8 15 12 36 37 38 39 
8 26 22 10 6 34 29 31 35 
8 34 29 31 35 25 20 14 16 
8 3 8 15 17 42 37 38 43 
8 42 37 38 43 24 19 20 25 
8 1 9 28 27 44 45 41 40 
8 44 45 41 40 23 22 29 30 
8 2 9 28 33 46 45 41 47 
8 46 45 41 47 26 22 29 34 
8 33 28 15 17 47 41 38 43 
8 47 41 38 43 34 29 20 25 

CELL_TYPES 18
12 
12 
12 
12 
12 
12 
12 
12 
12 
12 
12 
12 
12 
12 
12 
12 
12 
12 
POINT_DATA 48
SCALARS GMDS_ID int 1
LOOKUP_TABLE default
0 1 2 3 4 5 6 7 8 9 10 11 12 13 14 15 16 17 18 19 20 21 22 23 24 25 26 27 28 29 30 31 32 33 34 35 36 37 38 39 40 41 42 43 44 45 46 47 
SCALARS geom_link_dim int 1
LOOKUP_TABLE default
0 1 1 1 0 1 1 1 2 2 2 2 1 1 3 3 2 2 0 3 0 2 1 1 2 3 2 2 3 0 1 3 2 2 3 2 0 3 0 2 1 0 2 3 1 1 2 3 
SCALARS geom_link_id int 1
LOOKUP_TABLE default
-1 7 13 18 -1 2 9 10 8 16 24 9 8 1 1 2 14 11 -1 4 0 27 14 3 10 6 13 12 2 0 4 1 17 11 6 14 -1 4 -1 27 5 -1 10 6 6 15 13 6 


CELL_DATA 18
SCALARS GMDS_ID int 1
LOOKUP_TABLE default
0 1 3 6 7 9 10 11 14 15 16 17 18 19 20 21 22 23 

SCALARS is_in int 1
LOOKUP_TABLE default
1 1 1 1 1 1 1 1 1 1 1 1 1 0 1 1 1 1 

SCALARS geom_link_dim int 1
LOOKUP_TABLE default
0 0 0 0 0 0 0 0 0 0 0 0 0 0 0 0 0 0 

SCALARS geom_link_id int 1
LOOKUP_TABLE default
0 0 0 -1 -1 0 -1 -1 0 0 -1 -1 -1 -1 -1 -1 -1 -1 

