# vtk DataFile Version 3.0
Generated by GMDS VTK Writer

ASCII
DATASET UNSTRUCTURED_GRID
POINTS 24 float
0 0 0
0 10 0
10 10 0
10 0 0
0 0 10
0 10 10
10 10 10
10 0 10
0 1 0
0 1 10
10 1 10
10 1 0
0 8 0
0 8 10
10 8 10
10 8 0
0 0 7
10 0 7
10 1 7
0 1 7
10 8 7
0 8 7
10 10 7
0 10 7

CELLS 6 54
8 0 3 11 8 16 17 18 19 
8 16 17 18 19 4 7 10 9 
8 8 11 15 12 19 18 20 21 
8 19 18 20 21 9 10 14 13 
8 12 15 2 1 21 20 22 23 
8 21 20 22 23 13 14 6 5 

CELL_TYPES 6
12 
12 
12 
12 
12 
12 
POINT_DATA 24
SCALARS GMDS_ID int 1
LOOKUP_TABLE default
0 1 2 3 4 5 6 7 8 9 10 11 12 13 14 15 16 17 18 19 20 21 22 23 
SCALARS geom_link_dim int 1
LOOKUP_TABLE default
0 1 1 1 0 1 1 1 1 1 2 2 2 2 2 2 0 2 3 2 3 1 2 1 
SCALARS geom_link_id int 1
LOOKUP_TABLE default
-1 7 13 18 -1 2 9 10 8 1 14 11 12 17 14 11 -1 10 6 27 6 5 13 6 


CELL_DATA 6
SCALARS GMDS_ID int 1
LOOKUP_TABLE default
2 4 5 6 7 8 

SCALARS is_in int 1
LOOKUP_TABLE default
1 1 1 1 1 1 

SCALARS geom_link_dim int 1
LOOKUP_TABLE default
0 0 0 0 0 0 

SCALARS geom_link_id int 1
LOOKUP_TABLE default
-1 -1 -1 -1 -1 -1 

