# vtk DataFile Version 3.0
Generated by GMDS VTK Writer

ASCII
DATASET UNSTRUCTURED_GRID
POINTS 63 float
0 10 0
10 10 0
10 0 0
0 0 10
0 10 10
10 10 10
10 0 10
0 1 0
0 1 10
10 1 10
10 1 0
0 0 7
10 0 7
10 1 7
0 1 7
10 10 7
0 10 7
0 8 0
10 8 0
10 8 7
0 8 7
10 8 10
0 8 10
0 0 9
10 0 9
10 1 9
0 1 9
0 10 9
10 10 9
10 8 9
0 8 9
1 0 0
1 1 0
1 1 7
1 0 7
1 8 0
1 8 7
1 10 0
1 10 7
1 0 9
1 1 9
1 0 10
1 1 10
1 10 10
1 8 10
1 8 9
1 10 9
3 0 0
3 1 0
3 1 7
3 0 7
3 8 0
3 8 7
3 10 0
3 10 7
3 0 9
3 1 9
3 0 10
3 1 10
3 10 10
3 8 10
3 8 9
3 10 9

CELLS 21 189
8 6 9 25 24 57 58 56 55 
8 1 15 19 18 53 54 52 51 
8 47 48 49 50 31 32 33 34 
8 2 10 13 12 47 48 49 50 
8 35 36 33 32 17 20 14 7 
8 37 38 36 35 0 16 20 17 
8 39 40 33 34 23 26 14 11 
8 41 42 40 39 3 8 26 23 
8 43 44 45 46 4 22 30 27 
8 46 45 36 38 27 30 20 16 
8 42 44 45 40 8 22 30 26 
8 40 45 36 33 26 30 20 14 
8 57 58 56 55 41 42 40 39 
8 5 21 29 28 59 60 61 62 
8 59 60 61 62 43 44 45 46 
8 28 29 19 15 62 61 52 54 
8 62 61 52 54 46 45 36 38 
8 9 21 29 25 58 60 61 56 
8 58 60 61 56 42 44 45 40 
8 25 29 19 13 56 61 52 49 
8 56 61 52 49 40 45 36 33 

CELL_TYPES 21
12 
12 
12 
12 
12 
12 
12 
12 
12 
12 
12 
12 
12 
12 
12 
12 
12 
12 
12 
12 
12 
POINT_DATA 63
SCALARS GMDS_ID int 1
LOOKUP_TABLE default
0 1 2 3 4 5 6 7 8 9 10 11 12 13 14 15 16 17 18 19 20 21 22 23 24 25 26 27 28 29 30 31 32 33 34 35 36 37 38 39 40 41 42 43 44 45 46 47 48 49 50 51 52 53 54 55 56 57 58 59 60 61 62 
SCALARS geom_link_dim int 1
LOOKUP_TABLE default
1 1 1 0 1 1 1 1 1 2 2 0 2 2 2 2 1 2 2 3 1 2 2 0 2 2 2 1 2 3 1 1 1 2 2 3 2 2 2 2 2 1 1 2 3 0 2 2 3 0 3 3 1 2 1 3 0 2 3 2 3 0 1 
SCALARS geom_link_id int 1
LOOKUP_TABLE default
7 13 18 -1 2 9 10 8 1 14 11 -1 10 10 27 13 6 12 11 6 5 14 17 -1 10 10 27 3 13 6 4 19 20 1 23 2 5 16 15 23 1 11 12 24 1 0 25 8 2 -1 4 2 17 16 15 4 -1 9 1 24 1 0 14 


CELL_DATA 21
SCALARS GMDS_ID int 1
LOOKUP_TABLE default
0 1 3 4 5 6 7 8 9 10 11 12 13 14 15 16 17 18 19 20 21 

SCALARS is_in int 1
LOOKUP_TABLE default
0 0 0 0 0 0 0 0 0 0 0 0 0 0 0 0 0 0 0 0 0 

SCALARS geom_link_dim int 1
LOOKUP_TABLE default
0 0 0 0 0 0 0 0 0 0 0 0 0 0 0 0 0 0 0 0 0 

SCALARS geom_link_id int 1
LOOKUP_TABLE default
0 0 0 0 0 0 0 0 0 0 0 0 0 0 0 0 0 0 0 0 0 

