# vtk DataFile Version 3.0
Generated by GMDS VTK Writer

ASCII
DATASET UNSTRUCTURED_GRID
POINTS 60 float
0 10 0
10 10 0
10 0 0
0 10 10
10 10 10
10 0 10
10 0 9
10 10 9
0 10 9
10 0 7
10 10 7
0 10 7
0 1 7
10 1 7
10 1 9
0 1 9
0 1 0
10 1 0
10 1 10
0 1 10
3 0 9
3 0 7
3 1 7
3 1 9
3 10 7
3 10 9
3 0 0
3 1 0
3 10 0
3 0 10
3 1 10
3 10 10
3 8 7
3 8 9
10 8 9
10 8 7
0 8 7
0 8 9
0 8 0
3 8 0
10 8 0
0 8 10
3 8 10
10 8 10
1 1 7
1 1 0
1 8 0
1 8 7
1 8 9
1 10 9
1 10 7
1 1 9
1 0 9
1 0 7
1 0 0
1 0 10
1 1 10
1 10 0
1 8 10
1 10 10

CELLS 22 198
8 20 21 22 23 6 9 13 14 
8 12 15 37 36 44 51 48 47 
8 32 33 34 35 24 25 7 10 
8 22 23 14 13 32 33 34 35 
8 44 51 48 47 22 23 33 32 
8 26 21 22 27 2 9 13 17 
8 29 20 23 30 5 6 14 18 
8 44 45 46 47 22 27 39 32 
8 12 16 38 36 44 45 46 47 
8 22 27 17 13 32 39 40 35 
8 32 39 40 35 24 28 1 10 
8 23 30 18 14 33 42 43 34 
8 33 42 43 34 25 31 4 7 
8 52 53 44 51 20 21 22 23 
8 54 53 44 45 26 21 22 27 
8 55 52 51 56 29 20 23 30 
8 36 38 0 11 47 46 57 50 
8 47 46 57 50 32 39 28 24 
8 15 19 41 37 51 56 58 48 
8 51 56 58 48 23 30 42 33 
8 37 41 3 8 48 58 59 49 
8 48 58 59 49 33 42 31 25 

CELL_TYPES 22
12 
12 
12 
12 
12 
12 
12 
12 
12 
12 
12 
12 
12 
12 
12 
12 
12 
12 
12 
12 
12 
12 
POINT_DATA 60
SCALARS GMDS_ID int 1
LOOKUP_TABLE default
1 2 3 5 6 7 9 10 11 13 14 15 16 17 18 19 20 21 22 23 24 25 26 27 28 29 30 31 32 33 34 35 36 37 38 39 40 41 42 43 44 45 46 47 48 49 50 51 52 53 54 55 56 57 58 59 60 61 62 63 
SCALARS geom_link_dim int 1
LOOKUP_TABLE default
1 1 1 1 1 1 2 2 1 2 2 1 2 3 3 2 1 2 2 1 3 3 3 3 1 1 2 3 2 2 3 2 1 1 3 3 1 1 2 3 2 2 3 2 2 1 3 2 2 2 2 2 2 2 1 1 1 2 3 2 
SCALARS geom_link_id int 1
LOOKUP_TABLE default
7 13 18 2 9 10 10 13 3 10 13 6 27 6 6 27 8 11 14 1 4 4 12 1 15 14 8 2 16 9 1 24 17 16 6 6 5 4 12 2 11 17 1 14 1 20 2 5 2 25 15 1 23 23 19 11 12 16 1 24 


CELL_DATA 22
SCALARS GMDS_ID int 1
LOOKUP_TABLE default
0 3 7 8 9 11 15 16 17 18 19 22 23 25 27 29 30 31 32 33 34 35 

SCALARS is_in int 1
LOOKUP_TABLE default
1 1 1 1 1 1 1 1 1 1 1 1 1 1 1 1 1 1 1 1 1 1 

SCALARS geom_link_dim int 1
LOOKUP_TABLE default
4 4 4 4 4 4 4 4 4 4 4 4 4 4 4 4 4 4 4 4 4 4 

SCALARS geom_link_id int 1
LOOKUP_TABLE default
1 1 1 1 1 1 1 1 1 1 1 1 1 1 1 1 1 1 1 1 1 1 

