# vtk DataFile Version 3.0
Generated by GMDS VTK Writer

ASCII
DATASET UNSTRUCTURED_GRID
POINTS 64 float
0 0 0
0 10 0
10 10 0
10 0 0
0 0 10
0 10 10
10 10 10
10 0 10
3 0 0
3 10 0
3 10 10
3 0 10
0 1 0
0 1 10
3 1 10
3 1 0
10 1 10
10 1 0
0 0 9
3 0 9
3 1 9
0 1 9
3 10 9
0 10 9
10 0 9
10 1 9
10 10 9
0 8 0
3 8 0
3 8 9
0 8 9
3 8 10
0 8 10
10 8 0
10 8 9
10 8 10
0 0 7
3 0 7
3 1 7
0 1 7
0 8 7
3 8 7
10 0 7
10 1 7
0 10 7
3 10 7
10 10 7
10 8 7
1 0 9
1 1 9
1 1 10
1 0 10
1 0 7
1 1 7
1 0 0
1 1 0
1 10 10
1 10 9
1 8 9
1 8 10
1 8 0
1 8 7
1 10 0
1 10 7

CELLS 27 243
8 54 55 53 52 8 15 38 37 
8 0 12 39 36 54 55 53 52 
8 36 39 21 18 52 53 49 48 
8 52 53 49 48 37 38 20 19 
8 24 19 20 25 7 11 14 16 
8 48 49 50 51 19 20 14 11 
8 18 21 13 4 48 49 50 51 
8 26 22 10 6 34 29 31 35 
8 34 29 31 35 25 20 14 16 
8 3 8 15 17 42 37 38 43 
8 42 37 38 43 24 19 20 25 
8 2 9 28 33 46 45 41 47 
8 46 45 41 47 26 22 29 34 
8 33 28 15 17 47 41 38 43 
8 47 41 38 43 34 29 20 25 
8 5 23 30 32 56 57 58 59 
8 56 57 58 59 10 22 29 31 
8 32 30 21 13 59 58 49 50 
8 59 58 49 50 31 29 20 14 
8 12 27 40 39 55 60 61 53 
8 55 60 61 53 15 28 41 38 
8 39 40 30 21 53 61 58 49 
8 53 61 58 49 38 41 29 20 
8 1 27 40 44 62 60 61 63 
8 62 60 61 63 9 28 41 45 
8 44 40 30 23 63 61 58 57 
8 63 61 58 57 45 41 29 22 

CELL_TYPES 27
12 
12 
12 
12 
12 
12 
12 
12 
12 
12 
12 
12 
12 
12 
12 
12 
12 
12 
12 
12 
12 
12 
12 
12 
12 
12 
12 
POINT_DATA 64
SCALARS GMDS_ID int 1
LOOKUP_TABLE default
0 1 2 3 4 5 6 7 8 9 10 11 12 13 14 15 16 17 18 19 20 21 22 23 24 25 26 27 28 29 30 31 32 33 34 35 36 37 38 39 40 41 42 43 44 45 46 47 48 49 50 51 52 53 54 55 56 57 58 59 60 61 62 63 
SCALARS geom_link_dim int 1
LOOKUP_TABLE default
0 1 1 1 0 1 1 1 2 2 2 2 1 1 3 3 2 2 0 3 0 2 1 1 2 3 2 2 3 0 1 3 2 2 3 2 0 3 0 2 1 0 2 3 1 1 2 3 2 0 1 1 2 0 1 1 2 2 0 3 3 0 2 2 
SCALARS geom_link_id int 1
LOOKUP_TABLE default
-1 7 13 18 -1 2 9 10 8 16 24 9 8 1 1 2 14 11 -1 4 0 27 14 3 10 6 13 12 2 0 4 1 17 11 6 14 -1 4 0 27 5 0 10 6 6 15 13 6 23 -1 12 11 23 -1 19 20 24 25 -1 1 2 -1 16 15 


CELL_DATA 27
SCALARS GMDS_ID int 1
LOOKUP_TABLE default
2 4 5 8 9 12 13 14 15 16 17 20 21 22 23 24 25 26 27 28 29 30 31 32 33 34 35 

SCALARS is_in int 1
LOOKUP_TABLE default
1 0 0 1 1 1 0 1 1 1 1 1 1 1 1 1 1 1 1 1 1 1 1 1 1 0 0 

SCALARS geom_link_dim int 1
LOOKUP_TABLE default
0 0 0 0 0 0 0 0 0 0 0 0 0 0 0 0 0 0 0 0 0 0 0 0 0 0 0 

SCALARS geom_link_id int 1
LOOKUP_TABLE default
-1 -1 -1 -1 0 -1 -1 0 0 0 0 0 0 0 0 -1 -1 -1 -1 -1 -1 -1 -1 -1 -1 -1 -1 

