# vtk DataFile Version 3.0
Generated by GMDS VTK Writer

ASCII
DATASET UNSTRUCTURED_GRID
POINTS 45 float
0 10 0
10 10 0
10 0 0
0 10 10
10 10 10
10 0 10
10 0 7
10 10 7
0 10 7
3 0 0
3 10 0
3 10 7
3 0 7
3 10 10
3 0 10
0 8 0
0 8 7
3 8 7
3 8 0
10 8 7
10 8 0
0 8 10
3 8 10
10 8 10
0 1 0
0 1 7
3 1 7
3 1 0
10 1 7
10 1 0
0 1 10
3 1 10
10 1 10
1 8 0
1 8 7
1 10 7
1 10 0
1 1 0
1 1 7
1 0 0
1 0 7
1 8 10
1 10 10
1 0 10
1 1 10

CELLS 16 144
8 27 26 28 29 18 17 19 20 
8 37 38 34 33 27 26 17 18 
8 9 12 6 2 27 26 28 29 
8 24 25 16 15 37 38 34 33 
8 18 17 19 20 10 11 7 1 
8 33 34 35 36 18 17 11 10 
8 15 16 8 0 33 34 35 36 
8 22 17 19 23 13 11 7 4 
8 14 12 6 5 31 26 28 32 
8 31 26 28 32 22 17 19 23 
8 39 40 38 37 9 12 26 27 
8 21 16 8 3 41 34 35 42 
8 41 34 35 42 22 17 11 13 
8 43 40 38 44 14 12 26 31 
8 30 25 16 21 44 38 34 41 
8 44 38 34 41 31 26 17 22 

CELL_TYPES 16
12 
12 
12 
12 
12 
12 
12 
12 
12 
12 
12 
12 
12 
12 
12 
12 
POINT_DATA 45
SCALARS GMDS_ID int 1
LOOKUP_TABLE default
1 2 3 5 6 7 9 10 11 12 13 14 15 16 17 18 19 20 21 22 23 24 25 26 27 28 29 30 31 32 33 34 35 36 37 38 39 40 41 42 43 44 45 46 47 
SCALARS geom_link_dim int 1
LOOKUP_TABLE default
1 1 1 1 1 1 2 2 1 2 2 1 3 2 2 2 1 0 3 3 2 2 3 2 1 2 0 3 3 2 1 3 2 3 0 2 2 1 2 1 2 3 2 1 1 
SCALARS geom_link_id int 1
LOOKUP_TABLE default
7 13 18 2 9 10 10 13 6 8 16 15 4 24 9 12 5 0 2 6 11 17 1 14 8 27 0 2 6 11 1 1 14 2 0 15 16 20 1 19 23 1 24 11 12 


CELL_DATA 16
SCALARS GMDS_ID int 1
LOOKUP_TABLE default
0 2 3 6 7 8 10 11 14 15 17 18 19 21 22 23 

SCALARS is_in int 1
LOOKUP_TABLE default
1 1 1 1 1 1 1 1 1 1 1 0 0 1 1 1 

SCALARS geom_link_dim int 1
LOOKUP_TABLE default
0 0 0 0 0 0 0 0 0 0 0 0 0 0 0 0 

SCALARS geom_link_id int 1
LOOKUP_TABLE default
0 0 0 0 0 0 0 0 0 0 0 0 0 0 0 0 

