# vtk DataFile Version 3.0
Generated by GMDS VTK Writer

ASCII
DATASET UNSTRUCTURED_GRID
POINTS 60 float
3 8 9
0 10 0
10 10 0
10 0 0
3 10 9
0 10 10
10 10 10
10 0 10
10 8 9
10 0 7
10 10 7
0 10 7
3 0 0
3 10 0
3 10 7
3 0 7
3 10 10
3 0 10
0 8 0
0 8 7
3 8 7
3 8 0
10 8 7
10 8 0
0 8 10
3 8 10
10 8 10
0 1 0
0 1 7
3 1 7
3 1 0
10 1 7
10 1 0
0 1 10
3 1 10
10 1 10
1 8 0
1 8 7
1 10 7
1 10 0
1 1 0
1 1 7
1 0 0
1 0 7
1 8 10
1 10 10
1 0 10
1 1 10
10 10 9
10 0 9
3 0 9
3 1 9
10 1 9
0 10 9
0 8 9
1 8 9
1 10 9
1 0 9
1 1 9
0 1 9

CELLS 24 216
8 30 29 31 32 21 20 22 23 
8 53 54 55 56 11 19 37 38 
8 40 41 37 36 30 29 20 21 
8 12 15 9 3 30 29 31 32 
8 5 24 44 45 53 54 55 56 
8 52 51 0 8 31 29 20 22 
8 27 28 19 18 40 41 37 36 
8 21 20 22 23 13 14 10 2 
8 36 37 38 39 21 20 14 13 
8 35 34 25 26 52 51 0 8 
8 18 19 11 1 36 37 38 39 
8 49 50 51 52 9 15 29 31 
8 7 17 34 35 49 50 51 52 
8 26 25 16 6 8 0 4 48 
8 42 43 41 40 12 15 29 30 
8 8 0 4 48 22 20 14 10 
8 45 44 25 16 56 55 0 4 
8 56 55 0 4 38 37 20 14 
8 46 47 34 17 57 58 51 50 
8 57 58 51 50 43 41 29 15 
8 24 33 47 44 54 59 58 55 
8 54 59 58 55 19 28 41 37 
8 44 47 34 25 55 58 51 0 
8 55 58 51 0 37 41 29 20 

CELL_TYPES 24
12 
12 
12 
12 
12 
12 
12 
12 
12 
12 
12 
12 
12 
12 
12 
12 
12 
12 
12 
12 
12 
12 
12 
12 
POINT_DATA 60
SCALARS GMDS_ID int 1
LOOKUP_TABLE default
0 1 2 3 4 5 6 7 8 9 10 11 12 13 14 15 16 17 18 19 20 21 22 23 24 25 26 27 28 29 30 31 32 33 34 35 36 37 38 39 40 41 42 43 44 45 46 47 48 49 50 51 52 53 54 55 56 57 58 59 
SCALARS geom_link_dim int 1
LOOKUP_TABLE default
0 1 1 1 1 1 1 1 3 2 2 1 2 2 1 3 2 2 2 1 0 3 3 2 2 3 2 1 2 0 3 3 2 1 3 2 3 0 2 2 1 2 1 2 3 2 1 1 2 2 3 0 3 1 1 0 2 2 2 2 
SCALARS geom_link_id int 1
LOOKUP_TABLE default
-1 7 13 18 14 2 9 10 6 10 13 6 8 16 15 4 24 9 12 5 0 2 6 11 17 1 14 8 27 0 2 6 11 1 1 14 2 0 15 16 20 1 19 23 1 24 11 12 13 10 4 -1 6 3 4 -1 25 23 1 27 


CELL_DATA 24
SCALARS GMDS_ID int 1
LOOKUP_TABLE default
0 1 2 3 4 5 6 7 8 9 10 12 13 16 17 20 24 25 26 27 28 29 30 31 

SCALARS is_in int 1
LOOKUP_TABLE default
1 0 1 1 1 1 1 1 1 1 1 1 1 1 1 1 1 0 1 1 1 1 1 1 

SCALARS geom_link_dim int 1
LOOKUP_TABLE default
0 0 0 0 0 0 0 0 0 0 0 0 0 0 0 0 0 0 0 0 0 0 0 0 

SCALARS geom_link_id int 1
LOOKUP_TABLE default
0 -1 0 0 -1 -1 0 0 0 -1 0 -1 -1 -1 0 -1 -1 -1 -1 -1 -1 -1 -1 -1 

