# vtk DataFile Version 3.0
Generated by GMDS VTK Writer

ASCII
DATASET UNSTRUCTURED_GRID
POINTS 62 float
0 10 0
10 10 0
10 0 0
0 0 10
0 10 10
10 10 10
10 0 10
0 1 0
0 1 10
10 1 10
10 1 0
10 0 7
10 1 7
0 1 7
10 10 7
0 10 7
0 8 0
10 8 0
10 8 7
0 8 7
10 8 10
0 8 10
0 0 9
10 0 9
10 1 9
0 1 9
0 10 9
10 10 9
10 8 9
0 8 9
1 0 0
1 1 0
1 1 7
1 0 7
1 8 0
1 8 7
1 10 0
1 10 7
1 0 9
1 1 9
1 0 10
1 1 10
1 10 10
1 8 10
1 8 9
1 10 9
3 0 0
3 1 0
3 1 7
3 0 7
3 8 0
3 8 7
3 10 0
3 10 7
3 0 9
3 1 9
3 0 10
3 1 10
3 10 10
3 8 10
3 8 9
3 10 9

CELLS 25 225
8 6 9 24 23 56 57 55 54 
8 54 55 48 49 38 39 32 33 
8 23 24 12 11 54 55 48 49 
8 52 53 51 50 36 37 35 34 
8 1 14 18 17 52 53 51 50 
8 50 51 48 47 34 35 32 31 
8 17 18 12 10 50 51 48 47 
8 46 47 48 49 30 31 32 33 
8 2 10 12 11 46 47 48 49 
8 34 35 32 31 16 19 13 7 
8 36 37 35 34 0 15 19 16 
8 40 41 39 38 3 8 25 22 
8 42 43 44 45 4 21 29 26 
8 45 44 35 37 26 29 19 15 
8 41 43 44 39 8 21 29 25 
8 39 44 35 32 25 29 19 13 
8 56 57 55 54 40 41 39 38 
8 5 20 28 27 58 59 60 61 
8 58 59 60 61 42 43 44 45 
8 27 28 18 14 61 60 51 53 
8 61 60 51 53 45 44 35 37 
8 9 20 28 24 57 59 60 55 
8 57 59 60 55 41 43 44 39 
8 24 28 18 12 55 60 51 48 
8 55 60 51 48 39 44 35 32 

CELL_TYPES 25
12 
12 
12 
12 
12 
12 
12 
12 
12 
12 
12 
12 
12 
12 
12 
12 
12 
12 
12 
12 
12 
12 
12 
12 
12 
POINT_DATA 62
SCALARS GMDS_ID int 1
LOOKUP_TABLE default
1 2 3 4 5 6 7 8 9 10 11 13 14 15 16 17 18 19 20 21 22 23 24 25 26 27 28 29 30 31 32 33 34 35 36 37 38 39 40 41 42 43 44 45 46 47 48 49 50 51 52 53 54 55 56 57 58 59 60 61 62 63 
SCALARS geom_link_dim int 1
LOOKUP_TABLE default
1 1 1 0 1 1 1 1 1 2 2 2 3 2 2 1 2 2 3 1 2 2 0 2 3 2 1 2 3 1 1 1 2 2 3 0 2 2 2 2 1 1 2 3 0 2 2 3 0 3 3 0 2 1 3 0 2 3 2 3 0 1 
SCALARS geom_link_id int 1
LOOKUP_TABLE default
7 13 18 -1 2 9 10 8 1 14 11 10 6 27 13 6 12 11 6 5 14 17 -1 10 6 27 3 13 6 4 19 20 1 23 2 0 16 15 23 1 11 12 24 1 0 25 8 2 0 4 2 0 16 15 4 0 9 1 24 1 0 14 


CELL_DATA 25
SCALARS GMDS_ID int 1
LOOKUP_TABLE default
0 1 2 4 5 8 9 10 11 12 14 18 20 22 24 26 27 28 29 30 31 32 33 34 35 

SCALARS is_in int 1
LOOKUP_TABLE default
1 1 1 1 1 1 1 1 1 1 1 0 1 0 1 1 1 1 1 1 0 1 1 1 1 

SCALARS geom_link_dim int 1
LOOKUP_TABLE default
0 0 0 0 0 0 0 0 0 0 0 0 0 0 0 0 0 0 0 0 0 0 0 0 0 

SCALARS geom_link_id int 1
LOOKUP_TABLE default
0 0 0 0 0 0 0 0 0 0 0 0 0 0 0 0 0 0 0 0 0 0 0 0 0 

