# vtk DataFile Version 3.0
Generated by GMDS VTK Writer

ASCII
DATASET UNSTRUCTURED_GRID
POINTS 60 float
0 10 0
10 10 0
10 0 0
0 10 10
10 10 10
10 0 10
0 1 0
0 1 10
10 1 10
10 1 0
10 0 7
10 1 7
0 1 7
10 10 7
0 10 7
0 8 0
10 8 0
10 8 7
0 8 7
10 8 10
0 8 10
10 0 9
10 1 9
0 1 9
0 10 9
10 10 9
10 8 9
0 8 9
1 0 0
1 1 0
1 1 7
1 0 7
1 8 0
1 8 7
1 10 0
1 10 7
1 0 9
1 1 9
1 0 10
1 1 10
1 10 10
1 8 10
1 8 9
1 10 9
3 0 0
3 1 0
3 1 7
3 0 7
3 8 0
3 8 7
3 10 0
3 10 7
3 0 9
3 1 9
3 0 10
3 1 10
3 10 10
3 8 10
3 8 9
3 10 9

CELLS 24 216
8 5 8 22 21 54 55 53 52 
8 52 53 46 47 36 37 30 31 
8 21 22 11 10 52 53 46 47 
8 50 51 49 48 34 35 33 32 
8 1 13 17 16 50 51 49 48 
8 48 49 46 45 32 33 30 29 
8 16 17 11 9 48 49 46 45 
8 44 45 46 47 28 29 30 31 
8 2 9 11 10 44 45 46 47 
8 32 33 30 29 15 18 12 6 
8 34 35 33 32 0 14 18 15 
8 40 41 42 43 3 20 27 24 
8 43 42 33 35 24 27 18 14 
8 39 41 42 37 7 20 27 23 
8 37 42 33 30 23 27 18 12 
8 54 55 53 52 38 39 37 36 
8 4 19 26 25 56 57 58 59 
8 56 57 58 59 40 41 42 43 
8 25 26 17 13 59 58 49 51 
8 59 58 49 51 43 42 33 35 
8 8 19 26 22 55 57 58 53 
8 55 57 58 53 39 41 42 37 
8 22 26 17 11 53 58 49 46 
8 53 58 49 46 37 42 33 30 

CELL_TYPES 24
12 
12 
12 
12 
12 
12 
12 
12 
12 
12 
12 
12 
12 
12 
12 
12 
12 
12 
12 
12 
12 
12 
12 
12 
POINT_DATA 60
SCALARS GMDS_ID int 1
LOOKUP_TABLE default
1 2 3 5 6 7 8 9 10 11 13 14 15 16 17 18 19 20 21 22 23 25 26 27 28 29 30 31 32 33 34 35 36 37 38 39 40 41 42 43 44 45 46 47 48 49 50 51 52 53 54 55 56 57 58 59 60 61 62 63 
SCALARS geom_link_dim int 1
LOOKUP_TABLE default
1 1 1 1 1 1 1 1 2 2 2 3 2 2 1 2 2 3 1 2 2 2 3 2 1 2 3 1 1 1 2 2 3 0 2 2 2 2 1 1 2 3 0 2 2 3 0 3 3 0 2 1 3 0 2 3 2 3 0 1 
SCALARS geom_link_id int 1
LOOKUP_TABLE default
7 13 18 2 9 10 8 1 14 11 10 6 27 13 6 12 11 6 5 14 17 10 6 27 3 13 6 4 19 20 1 23 2 0 16 15 23 1 11 12 24 1 0 25 8 2 0 4 2 0 16 15 4 0 9 1 24 1 0 14 


CELL_DATA 24
SCALARS GMDS_ID int 1
LOOKUP_TABLE default
0 1 2 4 5 8 9 10 11 12 14 20 22 24 26 27 28 29 30 31 32 33 34 35 

SCALARS is_in int 1
LOOKUP_TABLE default
1 1 1 1 1 1 1 1 1 1 1 1 0 1 1 1 1 1 1 0 1 1 1 1 

SCALARS geom_link_dim int 1
LOOKUP_TABLE default
0 0 0 0 0 0 0 0 0 0 0 0 0 0 0 0 0 0 0 0 0 0 0 0 

SCALARS geom_link_id int 1
LOOKUP_TABLE default
0 0 0 0 0 0 0 0 0 0 0 0 0 0 0 0 0 0 0 0 0 0 0 0 

