# vtk DataFile Version 3.0
Generated by GMDS VTK Writer

ASCII
DATASET UNSTRUCTURED_GRID
POINTS 18 float
0 0 0
0 10 0
10 10 0
10 0 0
0 0 10
0 10 10
10 10 10
10 0 10
0 0 7
10 0 7
10 10 7
0 10 7
3 0 0
3 10 0
3 10 7
3 0 7
3 10 10
3 0 10

CELLS 4 36
8 0 1 11 8 12 13 14 15 
8 12 13 14 15 3 2 10 9 
8 8 11 5 4 15 14 16 17 
8 15 14 16 17 9 10 6 7 

CELL_TYPES 4
12 
12 
12 
12 
POINT_DATA 18
SCALARS GMDS_ID int 1
LOOKUP_TABLE default
0 1 2 3 4 5 6 7 8 9 10 11 12 13 14 15 16 17 
SCALARS geom_link_dim int 1
LOOKUP_TABLE default
0 1 1 1 0 1 1 1 0 2 2 1 2 2 1 3 2 2 
SCALARS geom_link_id int 1
LOOKUP_TABLE default
-1 7 13 18 -1 2 9 10 -1 10 13 6 8 16 15 4 24 9 


CELL_DATA 4
SCALARS GMDS_ID int 1
LOOKUP_TABLE default
0 3 4 5 

SCALARS is_in int 1
LOOKUP_TABLE default
1 1 1 1 

SCALARS geom_link_dim int 1
LOOKUP_TABLE default
0 0 0 0 

SCALARS geom_link_id int 1
LOOKUP_TABLE default
-1 -1 -1 -1 

