# vtk DataFile Version 3.0
Generated by GMDS VTK Writer

ASCII
DATASET UNSTRUCTURED_GRID
POINTS 47 float
0 0 0
0 10 0
10 10 0
10 0 0
0 10 10
10 10 10
10 0 10
0 0 7
10 0 7
10 10 7
0 10 7
3 0 0
3 10 0
3 10 7
3 0 7
3 10 10
3 0 10
0 8 0
0 8 7
3 8 7
3 8 0
10 8 7
10 8 0
0 8 10
3 8 10
10 8 10
0 1 0
0 1 7
3 1 7
3 1 0
10 1 7
10 1 0
0 1 10
3 1 10
10 1 10
1 8 0
1 8 7
1 10 7
1 10 0
1 1 0
1 1 7
1 0 0
1 0 7
1 8 10
1 10 10
1 0 10
1 1 10

CELLS 101 303
2 29 20
2 37 13
2 0 26
2 38 12
2 14 28
2 17 1
2 7 27
2 35 36
2 12 2
2 11 3
2 0 7
2 3 8
2 8 6
2 2 9
2 9 5
2 1 10
2 10 4
2 18 10
2 26 17
2 19 13
2 26 27
2 13 9
2 14 8
2 28 19
2 12 13
2 11 29
2 11 14
2 15 5
2 16 6
2 15 13
2 27 18
2 16 14
2 1 38
2 20 12
2 17 18
2 20 19
2 10 37
2 21 9
2 36 19
2 22 2
2 21 19
2 22 21
2 22 20
2 35 20
2 23 4
2 18 36
2 24 15
2 23 18
2 19 24
2 17 35
2 25 5
2 25 21
2 25 24
2 29 28
2 8 30
2 30 21
2 3 31
2 31 22
2 30 28
2 31 30
2 31 29
2 32 23
2 16 33
2 33 24
2 32 27
2 28 33
2 6 34
2 34 25
2 34 30
2 34 33
2 37 36
2 38 37
2 38 35
2 26 39
2 39 29
2 27 40
2 40 28
2 39 40
2 36 40
2 35 39
2 0 41
2 41 11
2 7 42
2 42 14
2 41 42
2 42 40
2 41 39
2 23 43
2 43 24
2 4 44
2 44 15
2 36 43
2 44 37
2 44 43
2 45 16
2 32 46
2 46 33
2 45 42
2 40 46
2 45 46
2 43 46

CELL_TYPES 101
3 
3 
3 
3 
3 
3 
3 
3 
3 
3 
3 
3 
3 
3 
3 
3 
3 
3 
3 
3 
3 
3 
3 
3 
3 
3 
3 
3 
3 
3 
3 
3 
3 
3 
3 
3 
3 
3 
3 
3 
3 
3 
3 
3 
3 
3 
3 
3 
3 
3 
3 
3 
3 
3 
3 
3 
3 
3 
3 
3 
3 
3 
3 
3 
3 
3 
3 
3 
3 
3 
3 
3 
3 
3 
3 
3 
3 
3 
3 
3 
3 
3 
3 
3 
3 
3 
3 
3 
3 
3 
3 
3 
3 
3 
3 
3 
3 
3 
3 
3 
3 
POINT_DATA 47
SCALARS GMDS_ID int 1
LOOKUP_TABLE default
0 1 2 3 5 6 7 8 9 10 11 12 13 14 15 16 17 18 19 20 21 22 23 24 25 26 27 28 29 30 31 32 33 34 35 36 37 38 39 40 41 42 43 44 45 46 47 
SCALARS geom_link_dim int 1
LOOKUP_TABLE default
0 1 1 1 1 1 1 0 2 2 1 2 2 1 3 2 2 2 1 0 3 3 2 2 3 2 1 2 0 3 3 2 1 3 2 3 0 2 2 1 2 1 2 3 2 1 1 
SCALARS geom_link_id int 1
LOOKUP_TABLE default
-1 7 13 18 2 9 10 -1 10 13 6 8 16 15 4 24 9 12 5 0 2 6 11 17 1 14 8 27 0 2 6 11 1 1 14 2 0 15 16 20 1 19 23 1 24 11 12 


CELL_DATA 101
SCALARS GMDS_ID int 1
LOOKUP_TABLE default
0 1 2 3 4 5 6 7 9 10 12 14 15 16 17 18 19 20 21 22 23 25 27 28 29 30 31 33 35 36 37 38 39 40 41 43 45 46 47 48 49 50 51 52 53 54 55 56 57 59 60 61 62 64 66 67 68 69 70 71 72 74 75 76 77 78 80 81 82 83 84 85 86 87 88 89 90 91 92 93 94 95 96 97 98 99 100 101 102 103 104 105 106 107 109 110 111 112 113 114 115 

SCALARS geom_link_dim int 1
LOOKUP_TABLE default
0 2 0 2 0 2 0 0 2 2 0 2 2 2 2 2 0 2 2 0 2 0 0 0 0 0 0 2 2 0 0 0 2 0 0 0 2 0 0 2 0 0 0 0 2 0 0 0 0 0 2 0 0 0 0 0 2 2 0 0 0 2 0 0 2 0 2 2 0 0 0 0 0 2 0 0 0 0 0 0 0 2 0 0 2 0 2 0 0 2 2 0 0 0 2 2 0 2 0 2 0 

SCALARS geom_link_id int 1
LOOKUP_TABLE default
0 15 0 16 0 12 0 0 16 8 0 10 10 13 13 19 0 26 12 0 27 0 0 0 0 0 0 24 9 0 0 0 16 0 0 0 15 0 0 11 0 0 0 0 17 0 0 0 0 0 14 0 0 0 0 0 11 11 0 0 0 17 0 0 27 0 14 14 0 0 0 0 0 18 0 0 0 0 0 0 0 8 0 0 23 0 20 0 0 24 24 0 0 0 9 21 0 23 0 28 0 

