# vtk DataFile Version 3.0
Generated by GMDS VTK Writer

ASCII
DATASET UNSTRUCTURED_GRID
POINTS 63 float
0 10 0
10 10 0
10 0 0
0 0 10
0 10 10
10 10 10
10 0 10
0 1 0
0 1 10
10 1 10
10 1 0
0 0 7
10 0 7
10 1 7
0 1 7
10 10 7
0 10 7
0 8 0
10 8 0
10 8 7
0 8 7
10 8 10
0 8 10
0 0 9
10 0 9
10 1 9
0 1 9
0 10 9
10 10 9
10 8 9
0 8 9
1 0 0
1 1 0
1 1 7
1 0 7
1 8 0
1 8 7
1 10 0
1 10 7
1 0 9
1 1 9
1 0 10
1 1 10
1 10 10
1 8 10
1 8 9
1 10 9
3 0 0
3 1 0
3 1 7
3 0 7
3 8 0
3 8 7
3 10 0
3 10 7
3 0 9
3 1 9
3 0 10
3 1 10
3 10 10
3 8 10
3 8 9
3 10 9

CELLS 135 405
2 2 47
2 2 12
2 52 36
2 13 49
2 47 31
2 0 17
2 19 13
2 17 7
2 9 25
2 3 8
2 23 11
2 6 9
2 3 23
2 2 10
2 6 24
2 15 19
2 10 48
2 1 18
2 19 52
2 10 13
2 7 14
2 32 7
2 12 13
2 18 51
2 11 14
2 1 15
2 0 16
2 48 32
2 25 13
2 16 20
2 20 14
2 50 49
2 18 19
2 47 50
2 17 20
2 5 21
2 21 9
2 4 22
2 22 8
2 33 14
2 12 50
2 34 11
2 8 26
2 26 14
2 47 48
2 24 25
2 48 49
2 23 26
2 4 27
2 27 16
2 5 28
2 28 15
2 21 29
2 29 19
2 22 30
2 30 20
2 49 33
2 28 29
2 50 34
2 27 30
2 25 29
2 26 30
2 31 32
2 32 33
2 34 33
2 31 34
2 35 17
2 36 20
2 35 36
2 33 36
2 32 35
2 37 0
2 38 16
2 37 38
2 38 36
2 37 35
2 39 23
2 40 26
2 39 40
2 33 40
2 34 39
2 41 3
2 42 8
2 41 42
2 42 40
2 41 39
2 43 4
2 44 22
2 45 30
2 46 27
2 43 44
2 44 45
2 46 45
2 43 46
2 36 45
2 38 46
2 42 44
2 40 45
2 51 52
2 49 52
2 1 53
2 15 54
2 54 38
2 53 54
2 54 52
2 53 51
2 24 55
2 55 39
2 25 56
2 56 40
2 55 56
2 49 56
2 6 57
2 57 41
2 9 58
2 58 42
2 57 58
2 58 56
2 57 55
2 5 59
2 59 43
2 21 60
2 60 44
2 29 61
2 61 45
2 28 62
2 62 46
2 59 60
2 60 61
2 62 61
2 59 62
2 52 61
2 54 62
2 58 60
2 56 61

CELL_TYPES 135
3 
3 
3 
3 
3 
3 
3 
3 
3 
3 
3 
3 
3 
3 
3 
3 
3 
3 
3 
3 
3 
3 
3 
3 
3 
3 
3 
3 
3 
3 
3 
3 
3 
3 
3 
3 
3 
3 
3 
3 
3 
3 
3 
3 
3 
3 
3 
3 
3 
3 
3 
3 
3 
3 
3 
3 
3 
3 
3 
3 
3 
3 
3 
3 
3 
3 
3 
3 
3 
3 
3 
3 
3 
3 
3 
3 
3 
3 
3 
3 
3 
3 
3 
3 
3 
3 
3 
3 
3 
3 
3 
3 
3 
3 
3 
3 
3 
3 
3 
3 
3 
3 
3 
3 
3 
3 
3 
3 
3 
3 
3 
3 
3 
3 
3 
3 
3 
3 
3 
3 
3 
3 
3 
3 
3 
3 
3 
3 
3 
3 
3 
3 
3 
3 
3 
POINT_DATA 63
SCALARS GMDS_ID int 1
LOOKUP_TABLE default
0 1 2 3 4 5 6 7 8 9 10 11 12 13 14 15 16 17 18 19 20 21 22 23 24 25 26 27 28 29 30 31 32 33 34 35 36 37 38 39 40 41 42 43 44 45 46 47 48 49 50 51 52 53 54 55 56 57 58 59 60 61 62 
SCALARS geom_link_dim int 1
LOOKUP_TABLE default
1 1 1 0 1 1 1 1 1 2 2 0 2 2 2 2 1 2 2 3 1 2 2 0 2 2 2 1 2 3 1 1 1 2 2 3 2 2 2 2 2 1 1 2 3 0 2 2 3 0 3 3 1 2 1 3 0 2 3 2 3 0 1 
SCALARS geom_link_id int 1
LOOKUP_TABLE default
7 13 18 -1 2 9 10 8 1 14 11 -1 10 10 27 13 6 12 11 6 5 14 17 -1 10 10 27 3 13 6 4 19 20 1 23 2 5 16 15 23 1 11 12 24 1 0 25 8 2 -1 4 2 17 16 15 4 -1 9 1 24 1 0 14 


CELL_DATA 135
SCALARS GMDS_ID int 1
LOOKUP_TABLE default
0 1 2 3 4 5 6 8 9 10 11 12 13 14 15 16 17 18 19 20 21 22 23 24 25 26 27 28 29 30 31 32 33 34 35 36 37 38 39 40 41 42 43 44 45 46 47 48 49 50 51 52 53 54 55 56 57 58 59 60 61 62 63 64 65 66 67 68 69 70 71 72 73 74 75 76 77 78 79 80 81 82 83 84 85 86 87 88 89 90 91 92 93 94 95 96 97 98 99 100 102 103 104 105 106 107 108 109 110 111 112 113 114 115 116 117 118 119 120 121 122 123 124 125 126 127 128 129 130 131 132 133 134 135 136 

SCALARS geom_link_dim int 1
LOOKUP_TABLE default
2 2 0 0 2 2 0 2 0 0 0 0 0 0 2 0 0 0 0 0 0 2 2 0 0 2 2 0 2 2 0 0 0 0 0 0 0 2 2 0 0 0 0 0 0 2 0 0 2 0 2 2 0 0 0 2 0 0 0 2 0 0 2 0 0 0 0 0 0 0 0 0 2 0 0 0 0 0 0 0 0 0 2 2 0 0 0 0 0 2 0 0 0 0 0 0 0 0 0 0 0 0 2 0 2 0 0 0 0 0 0 0 2 2 0 0 0 0 0 0 0 0 0 0 0 0 2 0 0 0 0 0 2 0 0 

SCALARS geom_link_id int 1
LOOKUP_TABLE default
8 10 0 0 8 12 0 12 0 0 0 0 0 0 10 0 0 0 0 0 0 18 10 0 0 13 19 0 10 26 0 0 0 0 0 0 0 17 17 0 0 0 0 0 0 10 0 0 7 0 13 13 0 0 0 22 0 0 0 30 0 0 20 0 0 0 0 0 0 0 0 0 15 0 0 0 0 0 0 0 0 0 21 28 0 0 0 0 0 25 0 0 0 0 0 0 0 0 0 0 0 0 15 0 6 0 0 0 0 0 0 0 9 9 0 0 0 0 0 0 0 0 0 0 0 0 25 0 0 0 0 0 29 0 0 

