# vtk DataFile Version 3.0
Generated by GMDS VTK Writer

ASCII
DATASET UNSTRUCTURED_GRID
POINTS 27 float
0 0 0
0 10 0
10 10 0
10 0 0
0 0 10
0 10 10
10 10 10
10 0 10
0 0 7
10 0 7
10 10 7
0 10 7
3 0 0
3 10 0
3 10 7
3 0 7
3 10 10
3 0 10
0 8 0
0 8 7
3 8 7
3 8 0
10 8 7
10 8 0
0 8 10
3 8 10
10 8 10

CELLS 54 162
2 15 20
2 8 19
2 18 1
2 0 18
2 1 13
2 13 2
2 12 3
2 0 12
2 0 8
2 8 4
2 3 9
2 9 7
2 2 10
2 10 6
2 1 11
2 11 5
2 19 11
2 20 14
2 11 14
2 14 10
2 8 15
2 15 9
2 13 14
2 12 15
2 5 16
2 16 6
2 4 17
2 17 7
2 16 14
2 17 15
2 12 21
2 21 13
2 18 19
2 19 20
2 21 20
2 18 21
2 9 22
2 22 10
2 3 23
2 23 2
2 22 20
2 23 22
2 23 21
2 4 24
2 24 5
2 17 25
2 25 16
2 24 19
2 20 25
2 24 25
2 7 26
2 26 6
2 26 22
2 26 25

CELL_TYPES 54
3 
3 
3 
3 
3 
3 
3 
3 
3 
3 
3 
3 
3 
3 
3 
3 
3 
3 
3 
3 
3 
3 
3 
3 
3 
3 
3 
3 
3 
3 
3 
3 
3 
3 
3 
3 
3 
3 
3 
3 
3 
3 
3 
3 
3 
3 
3 
3 
3 
3 
3 
3 
3 
3 
POINT_DATA 27
SCALARS GMDS_ID int 1
LOOKUP_TABLE default
0 1 2 3 4 5 6 7 8 9 10 11 12 13 14 15 16 17 18 19 20 21 22 23 24 25 26 
SCALARS geom_link_dim int 1
LOOKUP_TABLE default
0 1 1 1 0 1 1 1 0 2 2 1 2 2 1 3 2 2 2 1 0 3 3 2 2 3 2 
SCALARS geom_link_id int 1
LOOKUP_TABLE default
-1 7 13 18 -1 2 9 10 -1 10 13 6 8 16 15 4 24 9 12 5 -1 2 6 11 17 1 14 


CELL_DATA 54
SCALARS GMDS_ID int 1
LOOKUP_TABLE default
1 3 5 7 8 9 10 11 12 13 14 15 16 17 18 19 20 22 24 25 26 27 29 31 32 33 34 35 36 38 39 40 41 42 43 44 45 46 47 48 49 50 51 52 53 54 55 56 57 58 59 60 61 62 

SCALARS geom_link_dim int 1
LOOKUP_TABLE default
0 0 0 0 2 2 0 0 0 0 2 2 2 2 2 0 2 0 2 0 0 0 0 0 2 2 0 0 0 0 0 0 0 0 0 0 0 0 2 2 0 0 0 0 0 0 0 0 0 0 2 2 0 0 

SCALARS geom_link_id int 1
LOOKUP_TABLE default
-1 -1 -1 -1 16 16 0 0 0 0 10 10 13 13 19 0 26 -1 15 0 0 0 0 0 24 24 0 0 0 0 -1 -1 -1 -1 -1 -1 -1 -1 11 11 -1 -1 -1 -1 -1 -1 -1 -1 -1 -1 14 14 -1 -1 

