# vtk DataFile Version 3.0
Generated by GMDS VTK Writer

ASCII
DATASET UNSTRUCTURED_GRID
POINTS 60 float
0 10 0
10 10 0
10 0 0
0 10 10
10 10 10
10 0 10
0 1 0
0 1 10
10 1 10
10 1 0
10 0 7
10 1 7
0 1 7
10 10 7
0 10 7
0 8 0
10 8 0
10 8 7
0 8 7
10 8 10
0 8 10
10 0 9
10 1 9
0 1 9
0 10 9
10 10 9
10 8 9
0 8 9
1 0 0
1 1 0
1 1 7
1 0 7
1 8 0
1 8 7
1 10 0
1 10 7
1 0 9
1 1 9
1 0 10
1 1 10
1 10 10
1 8 10
1 8 9
1 10 9
3 0 0
3 1 0
3 1 7
3 0 7
3 8 0
3 8 7
3 10 0
3 10 7
3 0 9
3 1 9
3 0 10
3 1 10
3 10 10
3 8 10
3 8 9
3 10 9

CELLS 125 375
2 2 44
2 2 10
2 49 33
2 11 46
2 44 28
2 0 15
2 17 11
2 15 6
2 8 22
2 5 8
2 2 9
2 5 21
2 13 17
2 9 45
2 1 16
2 17 49
2 9 11
2 6 12
2 29 6
2 10 11
2 16 48
2 1 13
2 0 14
2 45 29
2 22 11
2 14 18
2 18 12
2 47 46
2 16 17
2 44 47
2 15 18
2 4 19
2 19 8
2 3 20
2 20 7
2 30 12
2 10 47
2 7 23
2 23 12
2 44 45
2 21 22
2 45 46
2 3 24
2 4 25
2 25 13
2 19 26
2 26 17
2 20 27
2 27 18
2 46 30
2 25 26
2 47 31
2 24 27
2 22 26
2 23 27
2 28 29
2 29 30
2 31 30
2 28 31
2 32 15
2 33 18
2 32 33
2 30 33
2 29 32
2 34 0
2 35 14
2 34 35
2 35 33
2 34 32
2 37 23
2 36 37
2 30 37
2 39 7
2 38 39
2 39 37
2 38 36
2 40 3
2 41 20
2 42 27
2 43 24
2 40 41
2 41 42
2 43 42
2 40 43
2 33 42
2 35 43
2 39 41
2 37 42
2 48 49
2 46 49
2 1 50
2 13 51
2 51 35
2 50 51
2 51 49
2 50 48
2 21 52
2 52 36
2 22 53
2 53 37
2 52 53
2 46 53
2 5 54
2 54 38
2 8 55
2 55 39
2 54 55
2 55 53
2 54 52
2 4 56
2 56 40
2 19 57
2 57 41
2 26 58
2 58 42
2 25 59
2 59 43
2 56 57
2 57 58
2 59 58
2 56 59
2 49 58
2 51 59
2 55 57
2 53 58

CELL_TYPES 125
3 
3 
3 
3 
3 
3 
3 
3 
3 
3 
3 
3 
3 
3 
3 
3 
3 
3 
3 
3 
3 
3 
3 
3 
3 
3 
3 
3 
3 
3 
3 
3 
3 
3 
3 
3 
3 
3 
3 
3 
3 
3 
3 
3 
3 
3 
3 
3 
3 
3 
3 
3 
3 
3 
3 
3 
3 
3 
3 
3 
3 
3 
3 
3 
3 
3 
3 
3 
3 
3 
3 
3 
3 
3 
3 
3 
3 
3 
3 
3 
3 
3 
3 
3 
3 
3 
3 
3 
3 
3 
3 
3 
3 
3 
3 
3 
3 
3 
3 
3 
3 
3 
3 
3 
3 
3 
3 
3 
3 
3 
3 
3 
3 
3 
3 
3 
3 
3 
3 
3 
3 
3 
3 
3 
3 
POINT_DATA 60
SCALARS GMDS_ID int 1
LOOKUP_TABLE default
0 1 2 3 4 5 6 7 8 9 10 11 12 13 14 15 16 17 18 19 20 21 22 23 24 25 26 27 28 29 30 31 32 33 34 35 36 37 38 39 40 41 42 43 44 45 46 47 48 49 50 51 52 53 54 55 56 57 58 59 
SCALARS geom_link_dim int 1
LOOKUP_TABLE default
1 1 1 1 1 1 1 1 2 2 2 2 2 2 1 2 2 3 1 2 2 2 2 2 1 2 3 1 1 1 2 2 3 2 2 2 2 2 1 1 2 3 2 2 2 3 0 3 3 1 2 1 3 0 2 3 2 3 0 1 
SCALARS geom_link_id int 1
LOOKUP_TABLE default
7 13 18 2 9 10 8 1 14 11 10 10 27 13 6 12 11 6 5 14 17 10 10 27 3 13 6 4 19 20 1 23 2 5 16 15 23 1 11 12 24 1 2 25 8 2 -1 4 2 17 16 15 4 -1 9 1 24 1 0 14 


CELL_DATA 125
SCALARS GMDS_ID int 1
LOOKUP_TABLE default
0 1 2 3 4 5 6 7 8 9 10 11 12 13 14 15 16 17 18 19 20 21 22 23 24 25 26 27 28 29 30 31 32 33 34 35 36 37 38 39 40 41 42 44 45 46 47 48 49 50 51 52 53 54 55 56 57 58 59 60 61 62 63 64 65 66 67 68 69 70 71 72 73 74 75 76 77 78 79 80 81 82 83 84 85 86 87 88 89 90 91 92 93 94 95 96 97 98 99 100 101 102 103 104 105 106 107 108 109 110 111 112 113 114 115 116 117 118 119 120 121 122 123 124 125 

SCALARS geom_link_dim int 1
LOOKUP_TABLE default
2 2 2 0 2 2 0 2 0 0 0 2 0 0 0 0 0 0 2 2 0 0 2 0 2 2 0 0 0 0 0 0 0 2 2 0 0 0 0 0 2 0 2 0 0 0 0 0 2 0 0 0 2 0 0 2 2 0 0 0 2 0 0 0 0 2 0 0 0 0 0 2 2 2 2 0 0 0 0 2 0 0 0 0 0 0 0 0 0 0 0 0 2 0 2 0 0 0 0 0 0 0 2 2 0 0 0 0 0 0 0 0 0 0 0 0 2 0 0 0 0 0 2 0 0 

SCALARS geom_link_id int 1
LOOKUP_TABLE default
8 10 5 0 8 12 0 12 0 0 0 10 0 0 0 0 0 0 18 10 0 0 19 0 10 26 0 0 0 0 0 0 0 17 17 0 0 0 0 0 10 0 7 0 0 0 0 0 22 0 0 0 30 0 0 20 1 0 0 0 5 0 0 0 0 15 0 0 0 0 0 1 21 28 1 0 0 0 0 25 0 0 0 0 0 0 0 0 0 0 0 0 15 0 6 0 0 0 0 0 0 0 9 9 0 0 0 0 0 0 0 0 0 0 0 0 25 0 0 0 0 0 29 0 0 

