# vtk DataFile Version 3.0
Generated by GMDS VTK Writer

ASCII
DATASET UNSTRUCTURED_GRID
POINTS 60 float
3 8 9
0 10 0
10 10 0
10 0 0
3 10 9
0 10 10
10 10 10
10 0 10
10 8 9
10 0 7
10 10 7
0 10 7
3 0 0
3 10 0
3 10 7
3 0 7
3 10 10
3 0 10
0 8 0
0 8 7
3 8 7
3 8 0
10 8 7
10 8 0
0 8 10
3 8 10
10 8 10
0 1 0
0 1 7
3 1 7
3 1 0
10 1 7
10 1 0
0 1 10
3 1 10
10 1 10
1 8 0
1 8 7
1 10 7
1 10 0
1 1 0
1 1 7
1 0 0
1 0 7
1 8 10
1 10 10
1 0 10
1 1 10
10 10 9
10 0 9
3 0 9
3 1 9
10 1 9
0 10 9
0 8 9
1 8 9
1 10 9
1 0 9
1 1 9
0 1 9

CELLS 132 396
2 30 21
2 38 14
2 26 8
2 39 13
2 15 29
2 18 1
2 25 0
2 36 37
2 0 8
2 13 2
2 12 3
2 52 31
2 16 4
2 48 10
2 3 9
2 2 10
2 1 11
2 19 11
2 27 18
2 20 14
2 27 28
2 4 0
2 14 10
2 35 52
2 15 9
2 29 20
2 13 14
2 12 30
2 12 15
2 48 4
2 16 6
2 7 49
2 17 7
2 28 19
2 1 39
2 21 13
2 18 19
2 50 15
2 21 20
2 17 50
2 11 38
2 22 10
2 37 20
2 23 2
2 22 20
2 23 22
2 23 21
2 36 21
2 24 5
2 19 37
2 25 16
2 48 8
2 18 36
2 26 6
2 26 25
2 34 51
2 30 29
2 51 29
2 9 31
2 31 22
2 3 32
2 32 23
2 31 29
2 32 31
2 32 30
2 4 14
2 33 24
2 17 34
2 34 25
2 49 9
2 7 35
2 35 26
2 35 34
2 38 37
2 39 38
2 39 36
2 27 40
2 40 30
2 28 41
2 41 29
2 40 41
2 37 41
2 36 40
2 8 22
2 42 12
2 0 20
2 43 15
2 42 43
2 43 41
2 42 40
2 24 44
2 44 25
2 5 45
2 45 16
2 45 44
2 6 48
2 46 17
2 33 47
2 47 34
2 46 47
2 44 47
2 49 50
2 50 51
2 51 52
2 49 52
2 0 51
2 8 52
2 5 53
2 24 54
2 54 19
2 44 55
2 55 37
2 45 56
2 56 38
2 53 54
2 54 55
2 55 56
2 53 56
2 0 55
2 4 56
2 46 57
2 57 43
2 47 58
2 58 41
2 57 58
2 51 58
2 50 57
2 33 59
2 59 28
2 54 59
2 59 58
2 55 58

CELL_TYPES 132
3 
3 
3 
3 
3 
3 
3 
3 
3 
3 
3 
3 
3 
3 
3 
3 
3 
3 
3 
3 
3 
3 
3 
3 
3 
3 
3 
3 
3 
3 
3 
3 
3 
3 
3 
3 
3 
3 
3 
3 
3 
3 
3 
3 
3 
3 
3 
3 
3 
3 
3 
3 
3 
3 
3 
3 
3 
3 
3 
3 
3 
3 
3 
3 
3 
3 
3 
3 
3 
3 
3 
3 
3 
3 
3 
3 
3 
3 
3 
3 
3 
3 
3 
3 
3 
3 
3 
3 
3 
3 
3 
3 
3 
3 
3 
3 
3 
3 
3 
3 
3 
3 
3 
3 
3 
3 
3 
3 
3 
3 
3 
3 
3 
3 
3 
3 
3 
3 
3 
3 
3 
3 
3 
3 
3 
3 
3 
3 
3 
3 
3 
3 
POINT_DATA 60
SCALARS GMDS_ID int 1
LOOKUP_TABLE default
0 1 2 3 4 5 6 7 8 9 10 11 12 13 14 15 16 17 18 19 20 21 22 23 24 25 26 27 28 29 30 31 32 33 34 35 36 37 38 39 40 41 42 43 44 45 46 47 48 49 50 51 52 53 54 55 56 57 58 59 
SCALARS geom_link_dim int 1
LOOKUP_TABLE default
0 1 1 1 1 1 1 1 3 2 2 1 2 2 1 3 2 2 2 1 0 3 3 2 2 3 2 1 2 0 3 3 2 1 3 2 3 2 2 2 1 2 1 2 3 2 1 1 2 2 3 0 3 1 1 2 2 2 2 2 
SCALARS geom_link_id int 1
LOOKUP_TABLE default
0 7 13 18 14 2 9 10 6 10 13 6 8 16 15 4 24 9 12 5 0 2 6 11 17 1 14 8 27 0 2 6 11 1 1 14 2 5 15 16 20 1 19 23 1 24 11 12 13 10 4 0 6 3 4 2 25 23 1 27 


CELL_DATA 132
SCALARS GMDS_ID int 1
LOOKUP_TABLE default
0 1 2 3 4 5 6 7 8 9 10 11 12 13 14 16 18 20 21 22 23 24 25 26 27 28 29 30 31 32 33 34 35 37 39 40 41 42 43 44 45 46 47 48 49 50 51 52 53 54 55 58 59 60 62 63 64 65 66 67 68 69 70 71 72 73 74 75 76 79 80 81 83 84 85 86 87 88 89 90 91 92 93 94 95 96 97 98 99 100 101 102 103 104 107 108 109 110 111 114 115 116 117 118 119 120 121 122 124 125 126 127 128 129 130 131 132 133 134 135 136 137 138 139 140 141 142 143 144 145 146 147 

SCALARS geom_link_dim int 1
LOOKUP_TABLE default
0 2 0 2 0 2 0 0 0 2 2 0 0 2 2 2 2 2 2 0 2 0 0 0 0 0 0 0 0 0 2 2 2 0 2 0 0 0 0 0 2 0 0 2 0 0 0 0 2 0 0 0 0 2 0 0 0 0 0 0 2 2 0 0 0 2 2 0 0 2 2 2 0 0 0 0 2 0 0 0 2 0 0 0 2 0 0 2 0 2 0 0 2 2 0 2 2 2 0 2 0 0 0 0 0 0 0 2 0 2 0 0 0 0 2 0 0 2 0 2 2 2 2 2 0 0 0 2 2 0 0 0 

SCALARS geom_link_id int 1
LOOKUP_TABLE default
0 15 0 16 0 12 0 0 0 16 8 0 0 13 10 13 19 26 12 0 27 0 0 0 0 0 0 0 0 0 24 10 9 0 16 0 0 0 0 0 15 0 0 11 0 0 0 0 17 0 0 0 0 14 0 0 0 0 0 0 11 11 0 0 0 29 17 0 0 10 14 14 0 0 0 0 18 0 0 0 1 0 0 0 8 0 0 23 0 20 0 0 24 24 0 13 9 21 0 28 0 0 0 0 0 0 0 7 0 22 0 0 0 0 30 0 0 25 0 25 23 23 1 1 0 0 0 27 27 0 0 0 

