# vtk DataFile Version 3.0
Generated by GMDS VTK Writer

ASCII
DATASET UNSTRUCTURED_GRID
POINTS 18 float
0 0 0
0 10 0
10 10 0
10 0 0
0 0 10
0 10 10
10 10 10
10 0 10
3 0 0
3 10 0
3 10 10
3 0 10
0 1 0
0 1 10
3 1 10
3 1 0
10 1 10
10 1 0

CELLS 33 99
2 4 13
2 0 12
2 13 5
2 12 1
2 0 4
2 1 5
2 2 6
2 3 7
2 0 8
2 8 3
2 1 9
2 9 2
2 5 10
2 10 6
2 4 11
2 11 7
2 9 10
2 8 11
2 11 14
2 14 10
2 8 15
2 15 9
2 12 13
2 13 14
2 15 14
2 12 15
2 7 16
2 16 6
2 3 17
2 17 2
2 16 14
2 17 16
2 17 15

CELL_TYPES 33
3 
3 
3 
3 
3 
3 
3 
3 
3 
3 
3 
3 
3 
3 
3 
3 
3 
3 
3 
3 
3 
3 
3 
3 
3 
3 
3 
3 
3 
3 
3 
3 
3 
POINT_DATA 18
SCALARS GMDS_ID int 1
LOOKUP_TABLE default
0 1 2 3 4 5 6 7 8 9 10 11 12 13 14 15 16 17 
SCALARS geom_link_dim int 1
LOOKUP_TABLE default
0 1 1 1 0 1 1 1 2 2 2 2 1 1 3 3 2 2 
SCALARS geom_link_id int 1
LOOKUP_TABLE default
-1 7 13 18 -1 2 9 10 8 16 24 9 8 1 1 2 14 11 


CELL_DATA 33
SCALARS GMDS_ID int 1
LOOKUP_TABLE default
1 3 5 7 8 9 10 11 12 13 14 15 16 17 18 19 21 23 24 25 26 27 28 29 30 31 32 33 34 35 36 37 38 

SCALARS geom_link_dim int 1
LOOKUP_TABLE default
0 0 2 2 0 0 2 2 0 0 2 2 2 2 0 0 0 0 0 0 0 0 2 0 0 0 2 2 2 2 0 0 0 

SCALARS geom_link_id int 1
LOOKUP_TABLE default
-1 -1 17 12 0 0 13 10 0 0 16 16 24 24 0 0 0 0 -1 -1 -1 -1 27 -1 -1 -1 14 14 11 11 -1 -1 -1 

