# vtk DataFile Version 3.0
Generated by GMDS VTK Writer

ASCII
DATASET UNSTRUCTURED_GRID
POINTS 45 float
3 0 7
0 10 0
10 10 0
10 0 0
0 10 10
10 10 10
10 0 10
0 1 0
0 1 10
10 1 10
10 1 0
0 8 0
0 8 10
10 8 10
10 8 0
10 0 7
10 1 7
0 1 7
10 8 7
0 8 7
10 10 7
0 10 7
1 0 7
1 1 7
1 1 10
1 0 10
1 0 0
1 1 0
1 8 0
1 8 7
1 8 10
1 10 0
1 10 7
1 10 10
3 1 7
3 1 10
3 0 10
3 0 0
3 1 0
3 8 0
3 8 7
3 8 10
3 10 0
3 10 7
3 10 10

CELLS 96 288
2 12 4
2 34 23
2 8 12
2 10 38
2 11 1
2 35 24
2 7 11
2 35 34
2 23 17
2 16 34
2 3 15
2 15 6
2 6 9
2 3 10
2 15 0
2 36 35
2 37 26
2 9 13
2 13 5
2 10 14
2 14 2
2 6 36
2 24 8
2 36 25
2 10 16
2 16 9
2 7 17
2 17 8
2 3 37
2 15 16
2 36 0
2 14 18
2 18 13
2 11 19
2 19 12
2 16 18
2 0 34
2 17 19
2 2 20
2 20 5
2 1 21
2 21 4
2 20 18
2 9 35
2 21 19
2 22 23
2 24 23
2 25 24
2 25 22
2 0 22
2 27 7
2 26 27
2 27 23
2 26 22
2 28 11
2 29 19
2 27 28
2 28 29
2 23 29
2 30 12
2 30 29
2 24 30
2 31 1
2 32 21
2 31 28
2 29 32
2 31 32
2 33 4
2 33 30
2 33 32
2 38 27
2 37 38
2 38 34
2 37 0
2 14 39
2 39 28
2 18 40
2 40 29
2 38 39
2 39 40
2 34 40
2 13 41
2 41 30
2 41 40
2 35 41
2 2 42
2 42 31
2 20 43
2 43 32
2 42 39
2 40 43
2 42 43
2 5 44
2 44 33
2 44 41
2 44 43

CELL_TYPES 96
3 
3 
3 
3 
3 
3 
3 
3 
3 
3 
3 
3 
3 
3 
3 
3 
3 
3 
3 
3 
3 
3 
3 
3 
3 
3 
3 
3 
3 
3 
3 
3 
3 
3 
3 
3 
3 
3 
3 
3 
3 
3 
3 
3 
3 
3 
3 
3 
3 
3 
3 
3 
3 
3 
3 
3 
3 
3 
3 
3 
3 
3 
3 
3 
3 
3 
3 
3 
3 
3 
3 
3 
3 
3 
3 
3 
3 
3 
3 
3 
3 
3 
3 
3 
3 
3 
3 
3 
3 
3 
3 
3 
3 
3 
3 
3 
POINT_DATA 45
SCALARS GMDS_ID int 1
LOOKUP_TABLE default
0 1 2 3 5 6 7 8 9 10 11 12 13 14 15 17 18 19 20 21 22 23 24 25 26 27 28 29 30 31 32 33 34 35 36 37 38 39 40 41 42 43 44 45 46 
SCALARS geom_link_dim int 1
LOOKUP_TABLE default
3 1 1 1 1 1 1 1 1 2 2 2 2 2 2 2 3 2 3 1 2 1 2 2 1 1 1 1 3 0 3 2 2 2 0 3 2 2 3 3 0 3 2 1 2 
SCALARS geom_link_id int 1
LOOKUP_TABLE default
4 7 13 18 2 9 10 8 1 14 11 12 17 14 11 10 6 27 6 5 13 6 23 1 12 11 19 20 2 0 1 16 15 24 0 1 9 8 2 2 0 1 16 15 24 


CELL_DATA 96
SCALARS GMDS_ID int 1
LOOKUP_TABLE default
0 1 2 3 4 5 6 7 9 12 13 15 16 18 19 21 23 24 25 26 27 29 30 31 32 33 34 35 36 37 38 40 41 42 43 44 45 46 47 48 49 50 51 52 53 54 55 56 57 59 61 62 63 64 66 68 69 70 71 73 74 75 77 79 80 81 82 84 85 86 87 88 89 90 91 92 93 94 95 96 97 98 99 100 101 102 103 104 105 106 107 108 109 110 111 112 

SCALARS geom_link_dim int 1
LOOKUP_TABLE default
2 0 2 0 2 0 2 0 0 0 2 2 2 2 0 0 2 2 2 2 2 2 2 2 0 0 2 2 2 0 0 0 0 0 0 0 0 0 2 2 2 0 0 0 2 0 2 2 2 0 2 2 2 2 0 0 0 0 0 0 0 0 2 2 0 0 0 2 0 0 0 0 0 0 0 0 0 0 0 0 0 0 0 0 0 2 2 0 2 0 0 0 2 2 0 0 

SCALARS geom_link_id int 1
LOOKUP_TABLE default
17 0 17 0 12 0 12 0 0 0 10 10 14 11 0 0 8 14 14 11 11 9 21 9 0 0 27 27 8 0 0 0 0 0 0 0 0 0 13 13 19 0 0 0 26 0 1 28 23 0 18 20 1 23 0 0 0 0 0 0 0 0 16 15 0 0 0 24 0 0 0 0 0 0 0 0 0 0 0 0 0 0 0 0 0 16 16 0 15 0 0 0 24 24 0 0 

