# vtk DataFile Version 3.0
Generated by GMDS VTK Writer

ASCII
DATASET UNSTRUCTURED_GRID
POINTS 36 float
0 0 0
0 10 0
10 10 0
10 0 0
0 0 10
0 10 10
10 10 10
10 0 10
0 1 0
0 1 10
10 1 10
10 1 0
0 8 0
0 8 10
10 8 10
10 8 0
0 0 7
10 0 7
10 1 7
0 1 7
10 8 7
0 8 7
10 10 7
0 10 7
1 0 7
1 1 7
1 1 10
1 0 10
1 0 0
1 1 0
1 8 0
1 8 7
1 8 10
1 10 0
1 10 7
1 10 10

CELLS 75 225
2 13 5
2 9 13
2 12 1
2 8 12
2 17 24
2 25 19
2 18 25
2 24 16
2 0 8
2 3 17
2 4 9
2 17 7
2 7 10
2 16 4
2 3 11
2 0 16
2 7 27
2 10 26
2 10 14
2 14 6
2 11 15
2 15 2
2 27 4
2 26 9
2 11 18
2 18 10
2 8 19
2 19 9
2 17 18
2 16 19
2 15 20
2 20 14
2 12 21
2 21 13
2 18 20
2 19 21
2 2 22
2 22 6
2 1 23
2 23 5
2 22 20
2 23 21
2 24 25
2 26 25
2 27 26
2 27 24
2 3 28
2 28 0
2 11 29
2 29 8
2 28 29
2 29 25
2 28 24
2 15 30
2 30 12
2 20 31
2 31 21
2 29 30
2 30 31
2 25 31
2 14 32
2 32 13
2 32 31
2 26 32
2 2 33
2 33 1
2 22 34
2 34 23
2 33 30
2 31 34
2 33 34
2 6 35
2 35 5
2 35 32
2 35 34

CELL_TYPES 75
3 
3 
3 
3 
3 
3 
3 
3 
3 
3 
3 
3 
3 
3 
3 
3 
3 
3 
3 
3 
3 
3 
3 
3 
3 
3 
3 
3 
3 
3 
3 
3 
3 
3 
3 
3 
3 
3 
3 
3 
3 
3 
3 
3 
3 
3 
3 
3 
3 
3 
3 
3 
3 
3 
3 
3 
3 
3 
3 
3 
3 
3 
3 
3 
3 
3 
3 
3 
3 
3 
3 
3 
3 
3 
3 
POINT_DATA 36
SCALARS GMDS_ID int 1
LOOKUP_TABLE default
0 1 2 3 4 5 6 7 8 9 10 11 12 13 14 15 16 17 18 19 20 21 22 23 24 25 26 27 28 29 30 31 32 33 34 35 
SCALARS geom_link_dim int 1
LOOKUP_TABLE default
0 1 1 1 0 1 1 1 1 1 2 2 2 2 2 2 0 2 3 2 3 1 2 1 2 0 1 1 1 1 3 0 3 2 2 2 
SCALARS geom_link_id int 1
LOOKUP_TABLE default
-1 7 13 18 -1 2 9 10 8 1 14 11 12 17 14 11 -1 10 6 27 6 5 13 6 23 -1 12 11 19 20 2 -1 1 16 15 24 


CELL_DATA 75
SCALARS GMDS_ID int 1
LOOKUP_TABLE default
0 2 4 6 8 9 10 11 12 13 14 15 16 17 18 19 20 22 24 25 26 27 28 30 32 33 34 35 37 39 40 41 42 43 44 46 47 48 49 50 51 53 54 55 56 57 58 59 60 61 62 63 64 65 66 67 68 69 70 71 72 73 74 75 76 77 78 79 80 81 82 83 84 85 86 

SCALARS geom_link_dim int 1
LOOKUP_TABLE default
2 2 2 2 0 0 0 0 0 2 0 2 2 0 2 0 2 0 2 2 2 2 0 2 0 0 2 2 0 0 0 0 0 0 0 0 2 2 2 0 0 2 0 0 2 2 2 0 0 2 2 0 2 0 0 0 0 0 0 0 0 0 0 0 2 2 0 0 0 0 0 2 2 0 0 

SCALARS geom_link_id int 1
LOOKUP_TABLE default
17 17 12 12 -1 -1 -1 -1 0 10 0 10 14 0 11 0 9 -1 14 14 11 11 -1 21 0 0 27 27 0 0 0 0 0 0 0 0 13 13 19 0 0 26 -1 -1 28 23 8 -1 -1 18 20 -1 23 -1 -1 -1 -1 -1 -1 -1 -1 -1 -1 -1 16 16 -1 -1 -1 -1 -1 24 24 -1 -1 

