# vtk DataFile Version 3.0
Generated by GMDS VTK Writer

ASCII
DATASET UNSTRUCTURED_GRID
POINTS 60 float
3 0 7
0 10 0
10 10 0
10 0 0
3 1 9
0 10 10
10 10 10
10 0 10
0 1 0
0 1 10
10 1 10
10 1 0
0 8 0
0 8 10
10 8 10
10 8 0
3 0 9
10 0 7
10 1 7
0 1 7
10 8 7
0 8 7
10 10 7
0 10 7
1 0 7
1 1 7
1 1 10
1 0 10
1 0 0
1 1 0
1 8 0
1 8 7
1 8 10
1 10 0
1 10 7
1 10 10
3 1 7
3 1 10
3 0 10
3 0 0
3 1 0
3 8 0
3 8 7
3 8 10
3 10 0
3 10 7
3 10 10
1 1 9
1 0 9
10 0 9
10 1 9
1 8 9
0 8 9
0 1 9
1 10 9
0 10 9
10 8 9
3 8 9
10 10 9
3 10 9

CELLS 131 393
2 13 5
2 36 25
2 9 13
2 11 40
2 12 1
2 37 26
2 8 12
2 24 48
2 25 19
2 18 50
2 16 38
2 18 36
2 3 17
2 4 37
2 7 10
2 0 16
2 3 11
2 17 0
2 48 27
2 38 37
2 16 48
2 39 28
2 10 14
2 14 6
2 11 15
2 15 2
2 36 4
2 7 38
2 26 9
2 38 27
2 11 18
2 8 19
2 3 39
2 17 18
2 25 47
2 15 20
2 12 21
2 18 20
2 0 36
2 19 21
2 2 22
2 1 23
2 22 20
2 10 37
2 23 21
2 24 25
2 27 26
2 47 26
2 0 24
2 49 7
2 29 8
2 28 29
2 29 25
2 28 24
2 50 10
2 30 12
2 49 50
2 31 21
2 29 30
2 30 31
2 25 31
2 17 49
2 32 13
2 26 32
2 47 4
2 33 1
2 48 47
2 34 23
2 33 30
2 31 34
2 33 34
2 16 4
2 35 5
2 35 32
2 40 29
2 39 40
2 40 36
2 39 0
2 15 41
2 41 30
2 20 42
2 42 31
2 40 41
2 41 42
2 36 42
2 14 43
2 43 32
2 37 43
2 2 44
2 44 33
2 22 45
2 45 34
2 44 41
2 42 45
2 44 45
2 6 46
2 46 35
2 46 43
2 50 4
2 16 49
2 31 51
2 51 32
2 21 52
2 52 13
2 19 53
2 53 9
2 47 51
2 52 51
2 53 52
2 53 47
2 54 35
2 55 5
2 51 54
2 55 54
2 52 55
2 20 56
2 56 14
2 42 57
2 57 43
2 50 56
2 56 57
2 4 57
2 51 57
2 22 58
2 58 6
2 45 59
2 59 46
2 56 58
2 58 59
2 57 59
2 54 59

CELL_TYPES 131
3 
3 
3 
3 
3 
3 
3 
3 
3 
3 
3 
3 
3 
3 
3 
3 
3 
3 
3 
3 
3 
3 
3 
3 
3 
3 
3 
3 
3 
3 
3 
3 
3 
3 
3 
3 
3 
3 
3 
3 
3 
3 
3 
3 
3 
3 
3 
3 
3 
3 
3 
3 
3 
3 
3 
3 
3 
3 
3 
3 
3 
3 
3 
3 
3 
3 
3 
3 
3 
3 
3 
3 
3 
3 
3 
3 
3 
3 
3 
3 
3 
3 
3 
3 
3 
3 
3 
3 
3 
3 
3 
3 
3 
3 
3 
3 
3 
3 
3 
3 
3 
3 
3 
3 
3 
3 
3 
3 
3 
3 
3 
3 
3 
3 
3 
3 
3 
3 
3 
3 
3 
3 
3 
3 
3 
3 
3 
3 
3 
3 
3 
POINT_DATA 60
SCALARS GMDS_ID int 1
LOOKUP_TABLE default
0 1 2 3 4 5 6 7 8 9 10 11 12 13 14 15 16 17 18 19 20 21 22 23 24 25 26 27 28 29 30 31 32 33 34 35 36 37 38 39 40 41 42 43 44 45 46 47 48 49 50 51 52 53 54 55 56 57 58 59 
SCALARS geom_link_dim int 1
LOOKUP_TABLE default
3 1 1 1 4 1 1 1 1 1 2 2 2 2 2 2 3 2 3 2 3 1 2 1 2 2 1 1 1 1 3 2 3 2 2 2 4 3 2 2 3 3 1 3 2 1 2 2 2 2 3 2 1 2 2 1 3 1 2 1 
SCALARS geom_link_id int 1
LOOKUP_TABLE default
4 7 13 18 1 2 9 10 8 1 14 11 12 17 14 11 4 10 6 27 6 5 13 6 23 1 12 11 19 20 2 5 1 16 15 24 1 1 9 8 2 2 17 1 16 15 24 1 23 10 6 2 4 27 25 3 6 16 13 14 


CELL_DATA 131
SCALARS GMDS_ID int 1
LOOKUP_TABLE default
0 1 2 3 4 5 6 8 9 10 11 12 13 14 16 17 18 19 20 21 22 23 24 25 26 27 28 29 30 31 32 34 36 37 39 40 42 44 45 46 47 49 51 52 53 54 56 58 59 60 61 62 63 64 65 66 67 68 69 70 71 72 73 75 76 77 78 79 80 81 82 83 84 85 87 88 89 90 91 92 93 94 95 96 97 98 99 101 102 103 104 105 106 107 108 109 110 111 113 114 115 116 117 118 119 120 121 122 123 124 126 128 129 130 131 132 133 134 135 136 137 138 139 140 141 142 143 144 145 146 147 

SCALARS geom_link_dim int 1
LOOKUP_TABLE default
2 4 2 3 2 3 2 2 3 3 3 4 2 4 2 3 2 3 2 3 3 2 2 2 2 2 4 2 2 2 3 2 2 3 2 3 3 3 4 3 2 2 3 3 2 3 2 2 3 2 2 2 2 2 3 3 3 2 3 4 4 2 3 3 4 2 3 2 3 3 3 4 2 3 3 3 4 3 3 3 4 2 3 4 4 3 3 3 2 2 3 2 3 2 3 2 2 3 4 3 3 4 2 3 2 2 4 2 3 3 3 2 3 2 2 3 3 2 4 3 4 4 2 2 2 2 3 3 3 2 2 

SCALARS geom_link_id int 1
LOOKUP_TABLE default
17 1 17 2 12 1 12 23 10 6 4 1 10 1 14 4 11 4 23 1 4 8 14 14 11 11 1 9 21 9 6 27 8 6 1 6 3 6 1 3 13 19 6 1 26 12 28 1 4 10 18 20 1 23 6 2 6 5 2 1 1 10 1 1 1 16 12 15 2 8 5 1 24 1 2 2 1 4 2 2 1 5 2 1 1 1 1 1 16 16 5 15 2 6 5 24 24 1 1 4 9 1 22 3 27 27 1 2 3 10 5 7 7 25 30 6 6 4 1 6 1 1 2 13 13 29 5 6 5 3 25 

