# vtk DataFile Version 3.0
Generated by GMDS VTK Writer

ASCII
DATASET UNSTRUCTURED_GRID
POINTS 48 float
0 0 0
0 10 0
10 10 0
10 0 0
0 0 10
0 10 10
10 10 10
10 0 10
3 0 0
3 10 0
3 10 10
3 0 10
0 1 0
0 1 10
3 1 10
3 1 0
10 1 10
10 1 0
0 0 9
3 0 9
3 1 9
0 1 9
3 10 9
0 10 9
10 0 9
10 1 9
10 10 9
0 8 0
3 8 0
3 8 9
0 8 9
3 8 10
0 8 10
10 8 0
10 8 9
10 8 10
0 0 7
3 0 7
3 1 7
0 1 7
0 8 7
3 8 7
10 0 7
10 1 7
0 10 7
3 10 7
10 10 7
10 8 7

CELLS 104 312
2 20 14
2 4 13
2 0 12
2 15 38
2 18 4
2 39 21
2 28 15
2 27 28
2 1 27
2 27 12
2 0 8
2 8 3
2 1 9
2 9 2
2 5 10
2 10 6
2 4 11
2 11 7
2 19 11
2 23 30
2 22 29
2 11 14
2 37 19
2 8 15
2 38 20
2 30 21
2 13 14
2 29 20
2 12 15
2 7 16
2 8 37
2 3 17
2 0 36
2 16 14
2 9 28
2 17 15
2 21 13
2 18 19
2 19 20
2 21 20
2 18 21
2 22 10
2 23 5
2 12 39
2 23 22
2 36 37
2 24 7
2 25 16
2 24 19
2 20 25
2 24 25
2 26 6
2 26 22
2 36 18
2 29 30
2 10 31
2 31 14
2 5 32
2 32 13
2 31 29
2 32 31
2 32 30
2 2 33
2 33 17
2 26 34
2 34 25
2 33 28
2 29 34
2 6 35
2 35 16
2 35 31
2 35 34
2 37 38
2 39 38
2 36 39
2 27 40
2 40 30
2 28 41
2 41 29
2 40 41
2 38 41
2 39 40
2 3 42
2 42 24
2 17 43
2 43 25
2 42 37
2 38 43
2 42 43
2 1 44
2 44 23
2 9 45
2 45 22
2 44 45
2 45 41
2 44 40
2 2 46
2 46 26
2 33 47
2 47 34
2 46 45
2 41 47
2 46 47
2 43 47

CELL_TYPES 104
3 
3 
3 
3 
3 
3 
3 
3 
3 
3 
3 
3 
3 
3 
3 
3 
3 
3 
3 
3 
3 
3 
3 
3 
3 
3 
3 
3 
3 
3 
3 
3 
3 
3 
3 
3 
3 
3 
3 
3 
3 
3 
3 
3 
3 
3 
3 
3 
3 
3 
3 
3 
3 
3 
3 
3 
3 
3 
3 
3 
3 
3 
3 
3 
3 
3 
3 
3 
3 
3 
3 
3 
3 
3 
3 
3 
3 
3 
3 
3 
3 
3 
3 
3 
3 
3 
3 
3 
3 
3 
3 
3 
3 
3 
3 
3 
3 
3 
3 
3 
3 
3 
3 
3 
POINT_DATA 48
SCALARS GMDS_ID int 1
LOOKUP_TABLE default
0 1 2 3 4 5 6 7 8 9 10 11 12 13 14 15 16 17 18 19 20 21 22 23 24 25 26 27 28 29 30 31 32 33 34 35 36 37 38 39 40 41 42 43 44 45 46 47 
SCALARS geom_link_dim int 1
LOOKUP_TABLE default
0 1 1 1 0 1 1 1 2 2 2 2 1 1 3 3 2 2 0 3 0 2 1 1 2 3 2 2 3 0 1 3 2 2 3 2 0 3 0 2 1 0 2 3 1 1 2 3 
SCALARS geom_link_id int 1
LOOKUP_TABLE default
-1 7 13 18 -1 2 9 10 8 16 24 9 8 1 1 2 14 11 -1 4 0 27 14 3 10 6 13 12 2 0 4 1 17 11 6 14 -1 4 -1 27 5 -1 10 6 6 15 13 6 


CELL_DATA 104
SCALARS GMDS_ID int 1
LOOKUP_TABLE default
0 1 3 5 6 7 8 9 10 11 12 13 14 15 16 17 18 19 20 21 23 24 25 26 27 28 29 30 31 32 33 34 35 36 37 38 40 41 42 43 44 46 48 49 50 51 53 55 56 57 58 60 61 62 64 66 67 68 69 70 71 72 73 74 75 76 77 78 80 81 82 83 84 85 86 87 88 89 90 91 92 93 94 95 96 97 98 99 100 101 102 103 104 105 106 107 108 109 110 111 112 113 114 115 

SCALARS geom_link_dim int 1
LOOKUP_TABLE default
0 0 0 0 0 2 0 0 2 2 0 0 2 2 2 2 0 0 0 2 0 0 0 0 0 0 0 0 0 2 0 2 0 0 0 0 2 0 0 0 0 0 2 2 2 0 2 0 0 0 0 2 0 0 0 0 0 2 2 0 0 0 2 2 0 0 0 0 2 2 0 0 0 0 0 0 2 0 0 0 0 0 2 2 0 0 0 0 0 2 0 0 2 2 0 2 2 2 0 0 0 0 0 0 

SCALARS geom_link_id int 1
LOOKUP_TABLE default
0 0 0 -1 0 27 0 0 12 12 0 0 16 16 24 24 0 0 0 30 0 0 -1 0 -1 0 0 0 0 14 -1 11 -1 0 0 0 27 0 0 0 0 0 7 27 25 -1 10 0 0 0 0 13 0 -1 0 0 0 17 17 0 0 0 11 11 0 0 0 0 14 14 0 0 -1 -1 -1 -1 22 -1 -1 -1 -1 -1 10 10 -1 -1 -1 -1 -1 19 -1 -1 29 15 -1 26 13 13 -1 -1 -1 -1 -1 -1 

