# vtk DataFile Version 3.0
Generated by GMDS VTK Writer

ASCII
DATASET UNSTRUCTURED_GRID
POINTS 45 float
0 10 0
10 10 0
10 0 0
0 10 10
10 10 10
10 0 10
10 0 7
10 10 7
0 10 7
3 0 0
3 10 0
3 10 7
3 0 7
3 10 10
3 0 10
0 8 0
0 8 7
3 8 7
3 8 0
10 8 7
10 8 0
0 8 10
3 8 10
10 8 10
0 1 0
0 1 7
3 1 7
3 1 0
10 1 7
10 1 0
0 1 10
3 1 10
10 1 10
1 8 0
1 8 7
1 10 7
1 10 0
1 1 0
1 1 7
1 0 0
1 0 7
1 8 10
1 10 10
1 0 10
1 1 10

CELLS 96 288
2 27 18
2 35 11
2 36 10
2 12 26
2 15 0
2 33 34
2 10 1
2 9 2
2 2 6
2 6 5
2 1 7
2 7 4
2 0 8
2 8 3
2 16 8
2 24 15
2 17 11
2 24 25
2 11 7
2 12 6
2 26 17
2 10 11
2 9 27
2 9 12
2 13 4
2 14 5
2 13 11
2 25 16
2 14 12
2 0 36
2 18 10
2 15 16
2 18 17
2 8 35
2 19 7
2 34 17
2 20 1
2 19 17
2 20 19
2 20 18
2 33 18
2 21 3
2 16 34
2 22 13
2 21 16
2 17 22
2 15 33
2 23 4
2 23 19
2 23 22
2 27 26
2 6 28
2 28 19
2 2 29
2 29 20
2 28 26
2 29 28
2 29 27
2 30 21
2 14 31
2 31 22
2 30 25
2 26 31
2 5 32
2 32 23
2 32 28
2 32 31
2 35 34
2 36 35
2 36 33
2 24 37
2 37 27
2 25 38
2 38 26
2 37 38
2 34 38
2 33 37
2 39 9
2 40 12
2 39 40
2 40 38
2 39 37
2 21 41
2 41 22
2 3 42
2 42 13
2 34 41
2 42 35
2 42 41
2 43 14
2 30 44
2 44 31
2 43 40
2 38 44
2 43 44
2 41 44

CELL_TYPES 96
3 
3 
3 
3 
3 
3 
3 
3 
3 
3 
3 
3 
3 
3 
3 
3 
3 
3 
3 
3 
3 
3 
3 
3 
3 
3 
3 
3 
3 
3 
3 
3 
3 
3 
3 
3 
3 
3 
3 
3 
3 
3 
3 
3 
3 
3 
3 
3 
3 
3 
3 
3 
3 
3 
3 
3 
3 
3 
3 
3 
3 
3 
3 
3 
3 
3 
3 
3 
3 
3 
3 
3 
3 
3 
3 
3 
3 
3 
3 
3 
3 
3 
3 
3 
3 
3 
3 
3 
3 
3 
3 
3 
3 
3 
3 
3 
POINT_DATA 45
SCALARS GMDS_ID int 1
LOOKUP_TABLE default
1 2 3 5 6 7 9 10 11 12 13 14 15 16 17 18 19 20 21 22 23 24 25 26 27 28 29 30 31 32 33 34 35 36 37 38 39 40 41 42 43 44 45 46 47 
SCALARS geom_link_dim int 1
LOOKUP_TABLE default
1 1 1 1 1 1 2 2 1 2 2 1 3 2 2 2 1 0 3 3 2 2 3 2 1 2 0 3 3 2 1 3 2 3 0 2 2 1 2 1 2 3 2 1 1 
SCALARS geom_link_id int 1
LOOKUP_TABLE default
7 13 18 2 9 10 10 13 6 8 16 15 4 24 9 12 5 0 2 6 11 17 1 14 8 27 0 2 6 11 1 1 14 2 0 15 16 20 1 19 23 1 24 11 12 


CELL_DATA 96
SCALARS GMDS_ID int 1
LOOKUP_TABLE default
0 1 3 4 5 7 9 10 14 15 16 17 18 19 20 21 22 23 25 27 28 29 30 31 33 35 36 37 38 39 40 41 43 45 46 47 48 49 50 51 52 53 54 55 56 57 59 60 61 62 64 66 67 68 69 70 71 72 74 75 76 77 78 80 81 82 83 84 85 86 87 88 89 90 91 92 93 95 97 98 99 100 101 102 103 104 105 106 107 109 110 111 112 113 114 115 

SCALARS geom_link_dim int 1
LOOKUP_TABLE default
0 2 2 0 2 0 2 2 2 2 2 2 2 0 2 2 0 2 0 0 0 0 0 0 2 2 0 0 0 2 0 0 0 2 0 0 2 0 0 0 0 2 0 0 0 0 0 2 0 0 0 0 0 2 2 0 0 0 2 0 0 2 0 2 2 0 0 0 0 0 2 0 0 0 2 0 0 2 0 2 0 2 0 0 2 2 0 0 0 2 2 0 2 2 2 0 

SCALARS geom_link_id int 1
LOOKUP_TABLE default
0 15 16 0 12 0 16 8 10 10 13 13 19 0 26 12 0 27 0 0 0 0 0 0 24 9 0 0 0 16 0 0 0 15 0 0 11 0 0 0 0 17 0 0 0 0 0 14 0 0 0 0 0 11 11 0 0 0 17 0 0 27 0 14 14 0 0 0 0 0 18 0 0 0 1 0 0 8 0 23 0 20 0 0 24 24 0 0 0 9 21 0 23 1 28 0 

