# vtk DataFile Version 3.0
Generated by GMDS VTK Writer

ASCII
DATASET UNSTRUCTURED_GRID
POINTS 36 float
0 0 0
0 10 0
10 10 0
10 0 0
0 0 10
0 10 10
10 10 10
10 0 10
3 0 0
3 10 0
3 10 10
3 0 10
0 1 0
0 1 10
3 1 10
3 1 0
10 1 10
10 1 0
0 0 9
3 0 9
3 1 9
0 1 9
3 10 9
0 10 9
10 0 9
10 1 9
10 10 9
0 8 0
3 8 0
3 8 9
0 8 9
3 8 10
0 8 10
10 8 0
10 8 9
10 8 10

CELLS 75 225
2 20 14
2 4 13
2 0 18
2 0 12
2 15 20
2 18 4
2 28 15
2 27 28
2 1 27
2 27 12
2 0 8
2 8 3
2 1 9
2 9 2
2 5 10
2 10 6
2 4 11
2 11 7
2 19 11
2 23 30
2 8 19
2 22 29
2 11 14
2 8 15
2 30 21
2 13 14
2 29 20
2 12 15
2 7 16
2 3 17
2 16 14
2 9 28
2 17 15
2 12 21
2 21 13
2 18 19
2 19 20
2 21 20
2 18 21
2 9 22
2 22 10
2 1 23
2 23 5
2 23 22
2 3 24
2 24 7
2 17 25
2 25 16
2 24 19
2 20 25
2 24 25
2 2 26
2 26 6
2 26 22
2 28 29
2 29 30
2 27 30
2 10 31
2 31 14
2 5 32
2 32 13
2 31 29
2 32 31
2 32 30
2 2 33
2 33 17
2 26 34
2 34 25
2 33 28
2 29 34
2 33 34
2 6 35
2 35 16
2 35 31
2 35 34

CELL_TYPES 75
3 
3 
3 
3 
3 
3 
3 
3 
3 
3 
3 
3 
3 
3 
3 
3 
3 
3 
3 
3 
3 
3 
3 
3 
3 
3 
3 
3 
3 
3 
3 
3 
3 
3 
3 
3 
3 
3 
3 
3 
3 
3 
3 
3 
3 
3 
3 
3 
3 
3 
3 
3 
3 
3 
3 
3 
3 
3 
3 
3 
3 
3 
3 
3 
3 
3 
3 
3 
3 
3 
3 
3 
3 
3 
3 
POINT_DATA 36
SCALARS GMDS_ID int 1
LOOKUP_TABLE default
0 1 2 3 4 5 6 7 8 9 10 11 12 13 14 15 16 17 18 19 20 21 22 23 24 25 26 27 28 29 30 31 32 33 34 35 
SCALARS geom_link_dim int 1
LOOKUP_TABLE default
0 1 1 1 0 1 1 1 2 2 2 2 1 1 3 3 2 2 0 3 0 2 1 1 2 3 2 2 3 0 1 3 2 2 3 2 
SCALARS geom_link_id int 1
LOOKUP_TABLE default
-1 7 13 18 -1 2 9 10 8 16 24 9 8 1 1 2 14 11 -1 4 0 27 14 3 10 6 13 12 2 -1 4 1 17 11 6 14 


CELL_DATA 75
SCALARS GMDS_ID int 1
LOOKUP_TABLE default
0 1 2 3 4 6 8 9 10 11 12 13 14 15 16 17 18 19 20 21 22 23 24 26 28 29 30 31 32 34 36 37 38 39 40 41 42 43 44 45 46 47 48 50 52 53 54 55 56 57 58 59 60 61 63 64 65 66 67 68 69 70 71 72 73 74 75 76 77 78 79 80 81 82 83 

SCALARS geom_link_dim int 1
LOOKUP_TABLE default
0 0 0 0 0 0 0 0 2 2 0 0 2 2 2 2 0 0 0 2 0 0 0 0 0 0 0 0 2 2 0 0 0 2 2 0 0 0 0 0 0 0 2 2 2 2 0 0 0 0 0 2 2 0 0 0 0 0 0 2 2 0 0 0 2 2 0 0 0 0 0 2 2 0 0 

SCALARS geom_link_id int 1
LOOKUP_TABLE default
0 0 0 0 0 0 -1 -1 12 12 0 0 16 16 24 24 0 0 0 30 0 -1 0 0 -1 0 -1 0 14 11 0 -1 0 27 27 0 0 0 0 0 0 0 7 25 10 10 0 0 0 0 0 13 13 0 -1 -1 -1 -1 -1 17 17 -1 -1 -1 11 11 -1 -1 -1 -1 -1 14 14 -1 -1 

