# vtk DataFile Version 3.0
Generated by GMDS VTK Writer

ASCII
DATASET UNSTRUCTURED_GRID
POINTS 48 float
0 0 0
0 10 0
10 10 0
10 0 0
0 0 10
0 10 10
10 10 10
10 0 10
0 1 0
0 1 10
10 1 10
10 1 0
0 0 7
10 0 7
10 1 7
0 1 7
10 10 7
0 10 7
0 8 0
10 8 0
10 8 7
0 8 7
10 8 10
0 8 10
0 0 9
10 0 9
10 1 9
0 1 9
0 10 9
10 10 9
10 8 9
0 8 9
1 0 0
1 1 0
1 1 7
1 0 7
1 8 0
1 8 7
1 10 0
1 10 7
1 0 9
1 1 9
1 0 10
1 1 10
1 10 10
1 8 10
1 8 9
1 10 9

CELLS 104 312
2 32 0
2 3 13
2 3 32
2 0 12
2 1 18
2 20 14
2 19 11
2 18 8
2 0 8
2 10 26
2 4 9
2 24 12
2 7 10
2 4 24
2 3 11
2 7 25
2 16 20
2 2 19
2 11 14
2 11 33
2 8 15
2 33 8
2 13 14
2 12 15
2 2 16
2 14 34
2 1 17
2 13 35
2 25 13
2 26 14
2 17 21
2 21 15
2 19 20
2 18 21
2 6 22
2 22 10
2 5 23
2 23 9
2 34 15
2 35 12
2 9 27
2 27 15
2 25 26
2 24 27
2 5 28
2 28 17
2 6 29
2 29 16
2 22 30
2 30 20
2 23 31
2 31 21
2 29 30
2 28 31
2 26 30
2 27 31
2 32 33
2 33 34
2 35 34
2 32 35
2 19 36
2 36 18
2 20 37
2 37 21
2 36 37
2 34 37
2 33 36
2 2 38
2 38 1
2 16 39
2 39 17
2 38 39
2 39 37
2 38 36
2 25 40
2 40 24
2 26 41
2 41 27
2 40 41
2 34 41
2 35 40
2 7 42
2 42 4
2 10 43
2 43 9
2 42 43
2 43 41
2 42 40
2 6 44
2 44 5
2 22 45
2 45 23
2 30 46
2 46 31
2 29 47
2 47 28
2 44 45
2 45 46
2 47 46
2 44 47
2 37 46
2 39 47
2 43 45
2 41 46

CELL_TYPES 104
3 
3 
3 
3 
3 
3 
3 
3 
3 
3 
3 
3 
3 
3 
3 
3 
3 
3 
3 
3 
3 
3 
3 
3 
3 
3 
3 
3 
3 
3 
3 
3 
3 
3 
3 
3 
3 
3 
3 
3 
3 
3 
3 
3 
3 
3 
3 
3 
3 
3 
3 
3 
3 
3 
3 
3 
3 
3 
3 
3 
3 
3 
3 
3 
3 
3 
3 
3 
3 
3 
3 
3 
3 
3 
3 
3 
3 
3 
3 
3 
3 
3 
3 
3 
3 
3 
3 
3 
3 
3 
3 
3 
3 
3 
3 
3 
3 
3 
3 
3 
3 
3 
3 
3 
POINT_DATA 48
SCALARS GMDS_ID int 1
LOOKUP_TABLE default
0 1 2 3 4 5 6 7 8 9 10 11 12 13 14 15 16 17 18 19 20 21 22 23 24 25 26 27 28 29 30 31 32 33 34 35 36 37 38 39 40 41 42 43 44 45 46 47 
SCALARS geom_link_dim int 1
LOOKUP_TABLE default
0 1 1 1 0 1 1 1 1 1 2 2 0 2 3 2 2 1 2 2 3 1 2 2 0 2 3 2 1 2 3 1 1 1 0 2 3 0 2 2 2 0 1 1 2 3 0 2 
SCALARS geom_link_id int 1
LOOKUP_TABLE default
-1 7 13 18 -1 2 9 10 8 1 14 11 -1 10 6 27 13 6 12 11 6 5 14 17 -1 10 6 27 3 13 6 4 19 20 -1 23 2 -1 16 15 23 -1 11 12 24 1 -1 25 


CELL_DATA 104
SCALARS GMDS_ID int 1
LOOKUP_TABLE default
0 2 4 6 8 9 10 11 12 13 14 15 16 17 18 19 20 22 24 25 26 27 29 31 32 33 34 35 36 38 39 40 42 44 45 46 47 48 49 51 52 53 55 57 58 59 60 61 62 63 64 65 67 69 70 71 72 73 74 75 76 77 78 79 80 81 82 83 84 85 86 87 88 89 90 91 92 93 94 95 96 97 98 99 100 101 102 103 104 105 106 107 108 109 110 111 112 113 114 115 116 117 118 119 

SCALARS geom_link_dim int 1
LOOKUP_TABLE default
0 2 2 0 2 0 0 2 0 0 0 0 0 0 0 2 0 0 0 0 0 2 0 0 0 0 2 0 2 0 2 0 0 0 0 0 2 2 0 0 0 0 0 0 2 0 0 0 0 0 0 2 0 2 0 0 2 0 0 0 0 0 0 0 0 0 0 2 2 0 0 0 0 0 0 0 0 0 0 0 0 2 0 0 2 2 0 0 2 2 0 0 0 0 0 0 0 0 0 0 0 0 0 0 

SCALARS geom_link_id int 1
LOOKUP_TABLE default
-1 10 8 0 12 0 0 12 0 0 0 0 0 0 0 10 0 0 0 -1 0 18 0 0 0 -1 19 -1 10 0 26 0 0 0 0 0 17 17 -1 -1 0 0 0 0 7 0 0 0 0 0 0 22 0 30 0 0 20 -1 -1 -1 -1 -1 -1 -1 -1 -1 -1 16 16 -1 -1 -1 -1 -1 -1 -1 -1 -1 -1 -1 -1 9 -1 -1 21 28 -1 -1 24 24 -1 -1 -1 -1 -1 -1 -1 -1 -1 -1 -1 -1 -1 -1 

