# vtk DataFile Version 3.0
Generated by GMDS VTK Writer

ASCII
DATASET UNSTRUCTURED_GRID
POINTS 35 float
0 10 0
10 10 0
10 0 0
0 0 10
0 10 10
10 10 10
10 0 10
0 1 0
0 1 10
10 1 10
10 1 0
0 8 0
0 8 10
10 8 10
10 8 0
0 0 7
10 0 7
10 1 7
0 1 7
10 8 7
0 8 7
10 10 7
0 10 7
1 0 7
1 1 7
1 1 10
1 0 10
1 0 0
1 1 0
1 8 0
1 8 7
1 8 10
1 10 0
1 10 7
1 10 10

CELLS 72 216
2 12 4
2 8 12
2 11 0
2 7 11
2 16 23
2 24 18
2 17 24
2 23 15
2 2 16
2 3 8
2 16 6
2 6 9
2 15 3
2 2 10
2 6 26
2 9 25
2 9 13
2 13 5
2 10 14
2 14 1
2 26 3
2 25 8
2 10 17
2 17 9
2 7 18
2 18 8
2 16 17
2 15 18
2 14 19
2 19 13
2 11 20
2 20 12
2 17 19
2 18 20
2 1 21
2 21 5
2 0 22
2 22 4
2 21 19
2 22 20
2 23 24
2 25 24
2 26 25
2 26 23
2 2 27
2 10 28
2 28 7
2 27 28
2 28 24
2 27 23
2 14 29
2 29 11
2 19 30
2 30 20
2 28 29
2 29 30
2 24 30
2 13 31
2 31 12
2 31 30
2 25 31
2 1 32
2 32 0
2 21 33
2 33 22
2 32 29
2 30 33
2 32 33
2 5 34
2 34 4
2 34 31
2 34 33

CELL_TYPES 72
3 
3 
3 
3 
3 
3 
3 
3 
3 
3 
3 
3 
3 
3 
3 
3 
3 
3 
3 
3 
3 
3 
3 
3 
3 
3 
3 
3 
3 
3 
3 
3 
3 
3 
3 
3 
3 
3 
3 
3 
3 
3 
3 
3 
3 
3 
3 
3 
3 
3 
3 
3 
3 
3 
3 
3 
3 
3 
3 
3 
3 
3 
3 
3 
3 
3 
3 
3 
3 
3 
3 
3 
POINT_DATA 35
SCALARS GMDS_ID int 1
LOOKUP_TABLE default
1 2 3 4 5 6 7 8 9 10 11 12 13 14 15 16 17 18 19 20 21 22 23 24 25 26 27 28 29 30 31 32 33 34 35 
SCALARS geom_link_dim int 1
LOOKUP_TABLE default
1 1 1 0 1 1 1 1 1 2 2 2 2 2 2 0 2 3 2 3 1 2 1 2 2 1 1 1 1 3 0 3 2 2 2 
SCALARS geom_link_id int 1
LOOKUP_TABLE default
7 13 18 -1 2 9 10 8 1 14 11 12 17 14 11 -1 10 6 27 6 5 13 6 23 1 12 11 19 20 2 0 1 16 15 24 


CELL_DATA 72
SCALARS GMDS_ID int 1
LOOKUP_TABLE default
0 2 4 6 8 9 10 11 13 14 15 16 17 18 20 22 24 25 26 27 28 30 32 33 34 35 37 39 40 41 42 43 44 46 47 48 49 50 51 53 54 55 56 57 58 60 61 62 63 64 65 66 67 68 69 70 71 72 73 74 75 76 77 78 79 80 81 82 83 84 85 86 

SCALARS geom_link_dim int 1
LOOKUP_TABLE default
2 2 2 2 0 0 0 0 2 0 2 2 0 2 2 0 2 2 2 2 0 2 0 0 2 2 0 0 0 0 0 0 0 0 2 2 2 0 0 2 0 0 2 2 2 0 2 2 0 2 0 0 0 0 0 0 0 0 0 0 0 2 2 0 0 0 0 0 2 2 0 0 

SCALARS geom_link_id int 1
LOOKUP_TABLE default
17 17 12 12 0 0 0 0 10 0 10 14 0 11 9 0 14 14 11 11 0 21 0 0 27 27 0 0 0 0 0 0 0 0 13 13 19 0 0 26 0 0 28 23 8 0 18 20 0 23 0 0 0 0 0 0 0 0 0 0 0 16 16 0 0 0 0 0 24 24 0 0 

