# vtk DataFile Version 3.0
Generated by GMDS VTK Writer

ASCII
DATASET UNSTRUCTURED_GRID
POINTS 60 float
0 10 0
10 10 0
10 0 0
0 10 10
10 10 10
10 0 10
10 0 9
10 10 9
0 10 9
10 0 7
10 10 7
0 10 7
0 1 7
10 1 7
10 1 9
0 1 9
0 1 0
10 1 0
10 1 10
0 1 10
3 0 9
3 0 7
3 1 7
3 1 9
3 10 7
3 10 9
3 0 0
3 1 0
3 10 0
3 0 10
3 1 10
3 10 10
3 8 7
3 8 9
10 8 9
10 8 7
0 8 7
0 8 9
0 8 0
3 8 0
10 8 0
0 8 10
3 8 10
10 8 10
1 1 7
1 1 0
1 8 0
1 8 7
1 8 9
1 10 9
1 10 7
1 1 9
1 0 9
1 0 7
1 0 0
1 0 10
1 1 10
1 10 0
1 8 10
1 10 10

CELLS 131 393
2 23 14
2 35 10
2 34 7
2 20 6
2 22 32
2 23 33
2 2 9
2 9 6
2 9 13
2 6 5
2 44 47
2 7 4
2 38 46
2 8 3
2 33 25
2 21 9
2 34 33
2 1 10
2 10 7
2 0 11
2 14 34
2 35 32
2 22 13
2 6 14
2 45 27
2 47 46
2 35 34
2 14 13
2 32 33
2 15 12
2 47 32
2 2 17
2 46 39
2 13 35
2 17 13
2 16 12
2 5 18
2 16 45
2 12 44
2 18 14
2 32 24
2 19 15
2 20 21
2 21 22
2 22 23
2 20 23
2 24 10
2 25 7
2 45 46
2 25 24
2 44 45
2 26 2
2 27 17
2 26 21
2 22 27
2 26 27
2 28 1
2 28 24
2 36 47
2 29 5
2 30 18
2 29 20
2 23 30
2 29 30
2 31 4
2 31 25
2 44 22
2 12 36
2 36 11
2 15 37
2 37 8
2 36 37
2 16 38
2 38 0
2 27 39
2 39 28
2 36 38
2 32 39
2 17 40
2 40 1
2 40 39
2 35 40
2 19 41
2 41 3
2 30 42
2 42 31
2 37 41
2 33 42
2 18 43
2 43 4
2 43 42
2 34 43
2 37 48
2 48 33
2 8 49
2 49 25
2 11 50
2 50 24
2 47 48
2 49 48
2 50 47
2 15 51
2 51 23
2 44 51
2 51 48
2 52 20
2 53 21
2 52 53
2 53 44
2 52 51
2 54 26
2 54 53
2 54 45
2 55 29
2 19 56
2 56 30
2 55 52
2 51 56
2 55 56
2 0 57
2 57 28
2 57 46
2 57 50
2 41 58
2 58 42
2 56 58
2 48 58
2 3 59
2 59 31
2 59 58
2 59 49

CELL_TYPES 131
3 
3 
3 
3 
3 
3 
3 
3 
3 
3 
3 
3 
3 
3 
3 
3 
3 
3 
3 
3 
3 
3 
3 
3 
3 
3 
3 
3 
3 
3 
3 
3 
3 
3 
3 
3 
3 
3 
3 
3 
3 
3 
3 
3 
3 
3 
3 
3 
3 
3 
3 
3 
3 
3 
3 
3 
3 
3 
3 
3 
3 
3 
3 
3 
3 
3 
3 
3 
3 
3 
3 
3 
3 
3 
3 
3 
3 
3 
3 
3 
3 
3 
3 
3 
3 
3 
3 
3 
3 
3 
3 
3 
3 
3 
3 
3 
3 
3 
3 
3 
3 
3 
3 
3 
3 
3 
3 
3 
3 
3 
3 
3 
3 
3 
3 
3 
3 
3 
3 
3 
3 
3 
3 
3 
3 
3 
3 
3 
3 
3 
3 
POINT_DATA 60
SCALARS GMDS_ID int 1
LOOKUP_TABLE default
1 2 3 5 6 7 9 10 11 13 14 15 16 17 18 19 20 21 22 23 24 25 26 27 28 29 30 31 32 33 34 35 36 37 38 39 40 41 42 43 44 45 46 47 48 49 50 51 52 53 54 55 56 57 58 59 60 61 62 63 
SCALARS geom_link_dim int 1
LOOKUP_TABLE default
1 1 1 1 1 1 2 2 1 2 2 1 2 3 3 2 1 2 2 1 3 3 3 3 1 1 2 3 2 2 3 2 1 1 3 3 1 1 2 3 2 2 3 2 2 1 3 2 2 2 2 2 2 2 1 1 1 2 3 2 
SCALARS geom_link_id int 1
LOOKUP_TABLE default
7 13 18 2 9 10 10 13 3 10 13 6 27 6 6 27 8 11 14 1 4 4 12 1 15 14 8 2 16 9 1 24 17 16 6 6 5 4 12 2 11 17 1 14 1 20 2 5 2 25 15 1 23 23 19 11 12 16 1 24 


CELL_DATA 131
SCALARS GMDS_ID int 1
LOOKUP_TABLE default
0 1 3 4 5 7 8 9 12 15 16 17 18 19 20 21 22 24 25 26 28 30 31 32 33 35 36 37 38 39 41 42 43 44 45 46 47 48 50 51 52 53 54 55 56 57 59 61 62 63 64 66 68 69 70 71 73 74 75 77 79 80 81 82 84 85 86 87 88 89 90 91 94 95 96 97 98 100 101 102 103 104 105 106 107 108 109 111 112 113 114 115 116 117 118 119 120 121 122 123 125 126 127 128 129 131 133 134 135 136 138 139 140 142 143 144 145 146 147 148 149 150 151 152 153 154 155 156 157 158 159 

SCALARS geom_link_dim int 1
LOOKUP_TABLE default
3 3 3 3 4 4 2 2 3 2 3 2 3 2 2 3 4 2 2 2 3 3 4 3 3 3 3 3 2 2 2 2 3 3 3 2 2 2 3 3 2 2 3 3 4 3 3 3 3 2 2 2 3 3 4 3 2 3 2 2 3 3 3 3 2 3 3 3 2 3 2 2 2 2 3 3 3 4 2 2 3 3 2 2 3 3 3 4 2 2 3 3 2 2 2 2 2 2 3 3 3 3 4 2 4 3 3 2 3 3 2 2 2 2 2 3 2 2 2 2 2 3 3 3 3 3 4 2 2 3 3 

SCALARS geom_link_id int 1
LOOKUP_TABLE default
1 5 6 4 1 1 10 10 6 10 2 13 2 7 3 4 1 13 13 19 6 5 1 4 2 2 6 6 4 27 5 11 2 6 6 27 14 18 10 1 6 27 4 12 1 4 5 5 2 29 1 8 2 4 1 2 16 5 5 9 1 4 1 1 24 5 12 3 26 3 30 22 12 12 2 2 3 1 11 11 2 6 17 17 1 1 3 1 14 14 1 6 2 2 25 25 15 15 9 7 8 10 1 1 1 4 4 23 12 12 8 23 20 9 21 1 23 1 28 16 16 2 5 1 1 1 1 24 24 1 5 

