# vtk DataFile Version 3.0
Generated by GMDS VTK Writer

ASCII
DATASET UNSTRUCTURED_GRID
POINTS 36 float
0 0 0
0 10 0
10 10 0
10 0 0
0 0 10
0 10 10
10 10 10
10 0 10
0 0 7
10 0 7
10 10 7
0 10 7
3 0 0
3 10 0
3 10 7
3 0 7
3 10 10
3 0 10
0 8 0
0 8 7
3 8 7
3 8 0
10 8 7
10 8 0
0 8 10
3 8 10
10 8 10
0 1 0
0 1 7
3 1 7
3 1 0
10 1 7
10 1 0
0 1 10
3 1 10
10 1 10

CELLS 75 225
2 30 21
2 0 27
2 15 29
2 18 1
2 8 28
2 1 13
2 13 2
2 12 3
2 0 12
2 0 8
2 8 4
2 3 9
2 9 7
2 2 10
2 10 6
2 1 11
2 11 5
2 19 11
2 27 18
2 20 14
2 27 28
2 11 14
2 14 10
2 8 15
2 15 9
2 29 20
2 13 14
2 12 30
2 12 15
2 5 16
2 16 6
2 4 17
2 17 7
2 16 14
2 28 19
2 17 15
2 21 13
2 18 19
2 19 20
2 21 20
2 18 21
2 22 10
2 23 2
2 22 20
2 23 22
2 23 21
2 24 5
2 25 16
2 24 19
2 20 25
2 24 25
2 26 6
2 26 22
2 26 25
2 28 29
2 30 29
2 27 30
2 9 31
2 31 22
2 3 32
2 32 23
2 31 29
2 32 31
2 32 30
2 4 33
2 33 24
2 17 34
2 34 25
2 33 28
2 29 34
2 33 34
2 7 35
2 35 26
2 35 31
2 35 34

CELL_TYPES 75
3 
3 
3 
3 
3 
3 
3 
3 
3 
3 
3 
3 
3 
3 
3 
3 
3 
3 
3 
3 
3 
3 
3 
3 
3 
3 
3 
3 
3 
3 
3 
3 
3 
3 
3 
3 
3 
3 
3 
3 
3 
3 
3 
3 
3 
3 
3 
3 
3 
3 
3 
3 
3 
3 
3 
3 
3 
3 
3 
3 
3 
3 
3 
3 
3 
3 
3 
3 
3 
3 
3 
3 
3 
3 
3 
POINT_DATA 36
SCALARS GMDS_ID int 1
LOOKUP_TABLE default
0 1 2 3 4 5 6 7 8 9 10 11 12 13 14 15 16 17 18 19 20 21 22 23 24 25 26 27 28 29 30 31 32 33 34 35 
SCALARS geom_link_dim int 1
LOOKUP_TABLE default
0 1 1 1 0 1 1 1 0 2 2 1 2 2 1 3 2 2 2 1 0 3 3 2 2 3 2 1 2 0 3 3 2 1 3 2 
SCALARS geom_link_id int 1
LOOKUP_TABLE default
-1 7 13 18 -1 2 9 10 -1 10 13 6 8 16 15 4 24 9 12 5 0 2 6 11 17 1 14 8 27 -1 2 6 11 1 1 14 


CELL_DATA 75
SCALARS GMDS_ID int 1
LOOKUP_TABLE default
0 2 4 5 6 8 9 10 11 12 13 14 15 16 17 18 19 20 21 22 23 24 25 26 27 28 29 30 31 32 33 34 35 36 37 38 40 41 42 43 44 46 48 49 50 51 53 55 56 57 58 60 61 62 63 64 65 66 67 68 69 70 71 72 73 74 75 76 77 78 79 80 81 82 83 

SCALARS geom_link_dim int 1
LOOKUP_TABLE default
0 0 0 2 0 2 2 0 0 0 0 2 2 2 2 2 0 2 2 0 2 2 0 0 0 0 0 0 0 2 2 0 0 0 0 0 0 0 0 0 0 0 2 0 0 0 2 0 0 0 0 2 0 0 0 0 0 0 0 2 2 0 0 0 0 2 0 0 2 0 0 2 2 0 0 

SCALARS geom_link_id int 1
LOOKUP_TABLE default
-1 -1 -1 12 -1 16 16 0 0 0 0 10 10 13 13 19 0 26 12 0 27 15 0 0 0 -1 0 -1 0 24 24 0 0 0 -1 0 0 0 0 0 0 0 11 0 0 0 17 0 0 0 0 14 0 0 -1 -1 -1 -1 -1 11 11 -1 -1 -1 -1 17 -1 -1 27 -1 -1 14 14 -1 -1 

