# vtk DataFile Version 3.0
Generated by GMDS VTK Writer

ASCII
DATASET UNSTRUCTURED_GRID
POINTS 60 float
0 10 0
10 10 0
10 0 0
0 10 10
10 10 10
10 0 10
3 0 0
3 10 0
3 10 10
3 0 10
0 1 0
0 1 10
3 1 10
3 1 0
10 1 10
10 1 0
3 0 9
3 1 9
0 1 9
3 10 9
0 10 9
10 0 9
10 1 9
10 10 9
0 8 0
3 8 0
3 8 9
0 8 9
3 8 10
0 8 10
10 8 0
10 8 9
10 8 10
3 0 7
3 1 7
0 1 7
0 8 7
3 8 7
10 0 7
10 1 7
0 10 7
3 10 7
10 10 7
10 8 7
1 0 9
1 1 9
1 1 10
1 0 10
1 0 7
1 1 7
1 0 0
1 1 0
1 10 10
1 10 9
1 8 9
1 8 10
1 8 0
1 8 7
1 10 0
1 10 7

CELLS 131 393
2 17 12
2 44 45
2 13 34
2 35 18
2 25 13
2 0 24
2 24 10
2 6 2
2 7 1
2 8 4
2 9 5
2 16 9
2 20 27
2 44 16
2 19 26
2 9 12
2 33 16
2 6 13
2 34 17
2 27 18
2 26 17
2 5 14
2 6 33
2 2 15
2 14 12
2 7 25
2 15 13
2 46 45
2 18 11
2 16 17
2 19 8
2 47 9
2 20 3
2 10 35
2 18 45
2 21 5
2 45 17
2 22 14
2 21 16
2 17 22
2 21 22
2 46 12
2 23 4
2 23 19
2 47 46
2 47 44
2 8 28
2 28 12
2 3 29
2 29 11
2 28 26
2 29 27
2 1 30
2 30 15
2 23 31
2 31 22
2 30 25
2 26 31
2 11 46
2 4 32
2 32 14
2 32 28
2 32 31
2 33 34
2 24 36
2 36 27
2 25 37
2 37 26
2 34 37
2 35 36
2 2 38
2 38 21
2 15 39
2 39 22
2 38 33
2 34 39
2 38 39
2 0 40
2 7 41
2 41 19
2 41 37
2 40 36
2 1 42
2 42 23
2 30 43
2 43 31
2 42 41
2 37 43
2 42 43
2 39 43
2 48 33
2 35 49
2 49 34
2 48 49
2 45 49
2 44 48
2 50 6
2 10 51
2 51 13
2 50 51
2 51 49
2 50 48
2 3 52
2 52 8
2 20 53
2 53 19
2 27 54
2 54 26
2 29 55
2 55 28
2 52 53
2 53 54
2 54 55
2 52 55
2 45 54
2 46 55
2 24 56
2 56 25
2 36 57
2 57 37
2 51 56
2 56 57
2 49 57
2 54 57
2 0 58
2 58 7
2 40 59
2 59 41
2 58 56
2 57 59
2 58 59

CELL_TYPES 131
3 
3 
3 
3 
3 
3 
3 
3 
3 
3 
3 
3 
3 
3 
3 
3 
3 
3 
3 
3 
3 
3 
3 
3 
3 
3 
3 
3 
3 
3 
3 
3 
3 
3 
3 
3 
3 
3 
3 
3 
3 
3 
3 
3 
3 
3 
3 
3 
3 
3 
3 
3 
3 
3 
3 
3 
3 
3 
3 
3 
3 
3 
3 
3 
3 
3 
3 
3 
3 
3 
3 
3 
3 
3 
3 
3 
3 
3 
3 
3 
3 
3 
3 
3 
3 
3 
3 
3 
3 
3 
3 
3 
3 
3 
3 
3 
3 
3 
3 
3 
3 
3 
3 
3 
3 
3 
3 
3 
3 
3 
3 
3 
3 
3 
3 
3 
3 
3 
3 
3 
3 
3 
3 
3 
3 
3 
3 
3 
3 
3 
3 
POINT_DATA 60
SCALARS GMDS_ID int 1
LOOKUP_TABLE default
1 2 3 5 6 7 8 9 10 11 12 13 14 15 16 17 19 20 21 22 23 24 25 26 27 28 29 30 31 32 33 34 35 37 38 39 40 41 42 43 44 45 46 47 48 49 50 51 52 53 54 55 56 57 58 59 60 61 62 63 
SCALARS geom_link_dim int 1
LOOKUP_TABLE default
1 1 1 1 1 1 2 2 2 2 1 1 3 3 2 2 3 3 2 1 1 2 3 2 2 3 1 1 3 2 2 3 2 3 4 2 1 1 2 3 1 1 2 3 2 2 1 1 2 2 1 1 2 2 2 3 3 2 2 2 
SCALARS geom_link_id int 1
LOOKUP_TABLE default
7 13 18 2 9 10 8 16 24 9 8 1 1 2 14 11 4 1 27 14 3 10 6 13 12 2 16 4 1 17 11 6 14 4 1 27 5 17 10 6 6 15 13 6 23 1 12 11 23 1 19 20 24 25 2 1 2 5 16 15 


CELL_DATA 131
SCALARS GMDS_ID int 1
LOOKUP_TABLE default
0 4 5 7 8 10 11 13 15 17 19 20 21 22 23 24 25 26 27 28 30 32 33 34 36 37 38 39 40 42 46 47 48 49 52 53 54 55 56 57 58 59 60 61 63 65 66 67 68 69 70 72 73 74 75 76 77 78 79 80 81 82 83 84 87 88 89 90 92 93 94 95 96 97 98 99 100 101 103 104 106 107 108 109 110 111 112 113 114 115 117 118 119 120 121 122 124 125 126 127 128 129 130 131 132 133 134 135 136 137 138 139 140 141 142 143 144 145 146 147 148 149 150 151 152 153 154 155 156 157 158 

SCALARS geom_link_dim int 1
LOOKUP_TABLE default
3 3 4 2 3 2 2 2 2 2 2 3 2 3 2 3 3 3 4 3 4 2 3 2 3 3 3 2 2 3 3 2 2 2 3 2 4 3 3 3 3 3 2 3 2 2 3 3 2 2 3 3 2 2 3 3 3 4 2 2 2 3 3 4 3 2 4 2 4 3 2 2 3 3 3 4 3 2 3 2 2 2 2 2 3 3 3 4 3 3 3 3 4 3 2 2 2 2 3 2 2 2 2 2 2 2 2 2 3 3 3 3 4 3 4 3 3 3 2 2 3 4 4 3 2 2 2 2 3 3 3 

SCALARS geom_link_id int 1
LOOKUP_TABLE default
1 12 1 27 2 12 12 8 16 24 9 1 30 4 3 1 4 2 1 3 1 14 4 11 1 2 2 1 27 1 5 9 7 27 10 10 1 6 4 6 6 1 13 5 28 23 1 1 17 17 5 3 11 11 6 6 2 1 21 14 14 1 6 1 3 22 1 4 1 3 10 10 6 6 4 1 6 19 5 29 6 26 13 13 6 6 5 1 6 6 4 10 1 12 1 23 8 18 2 20 1 23 24 24 25 25 2 2 1 1 5 7 1 1 1 1 2 2 5 5 2 1 1 9 16 16 15 15 2 8 5 

