# vtk DataFile Version 3.0
Generated by GMDS VTK Writer

ASCII
DATASET UNSTRUCTURED_GRID
POINTS 62 float
0 10 0
10 10 0
10 0 0
0 0 10
0 10 10
10 10 10
10 0 10
3 0 0
3 10 0
3 10 10
3 0 10
0 1 0
0 1 10
3 1 10
3 1 0
10 1 10
10 1 0
0 0 9
3 0 9
3 1 9
0 1 9
3 10 9
0 10 9
10 0 9
10 1 9
10 10 9
0 8 0
3 8 0
3 8 9
0 8 9
3 8 10
0 8 10
10 8 0
10 8 9
10 8 10
3 0 7
3 1 7
0 1 7
0 8 7
3 8 7
10 0 7
10 1 7
0 10 7
3 10 7
10 10 7
10 8 7
1 0 9
1 1 9
1 1 10
1 0 10
1 0 7
1 1 7
1 0 0
1 1 0
1 10 10
1 10 9
1 8 9
1 8 10
1 8 0
1 8 7
1 10 0
1 10 7

CELLS 138 414
2 19 13
2 3 12
2 17 46
2 46 47
2 14 36
2 17 3
2 37 20
2 27 14
2 0 26
2 26 11
2 7 2
2 8 1
2 9 5
2 10 6
2 18 10
2 22 29
2 46 18
2 21 28
2 10 13
2 35 18
2 7 14
2 36 19
2 29 20
2 28 19
2 6 15
2 7 35
2 2 16
2 15 13
2 8 27
2 16 14
2 48 47
2 20 12
2 18 19
2 17 20
2 3 49
2 21 9
2 49 10
2 22 4
2 11 37
2 20 47
2 23 6
2 47 19
2 24 15
2 23 18
2 19 24
2 23 24
2 48 13
2 25 5
2 25 21
2 49 48
2 49 46
2 9 30
2 30 13
2 4 31
2 31 12
2 30 28
2 31 29
2 1 32
2 32 16
2 25 33
2 33 24
2 32 27
2 28 33
2 12 48
2 5 34
2 34 15
2 34 30
2 34 33
2 35 36
2 26 38
2 38 29
2 27 39
2 39 28
2 36 39
2 37 38
2 2 40
2 40 23
2 16 41
2 41 24
2 40 35
2 36 41
2 40 41
2 0 42
2 42 22
2 8 43
2 43 21
2 43 39
2 42 38
2 1 44
2 44 25
2 32 45
2 45 33
2 44 43
2 39 45
2 44 45
2 41 45
2 50 35
2 37 51
2 51 36
2 50 51
2 47 51
2 46 50
2 52 7
2 11 53
2 53 14
2 52 53
2 53 51
2 52 50
2 4 54
2 54 9
2 22 55
2 55 21
2 29 56
2 56 28
2 31 57
2 57 30
2 54 55
2 55 56
2 56 57
2 54 57
2 47 56
2 48 57
2 26 58
2 58 27
2 38 59
2 59 39
2 53 58
2 58 59
2 51 59
2 56 59
2 0 60
2 60 8
2 42 61
2 61 43
2 60 58
2 59 61
2 60 61
2 55 61

CELL_TYPES 138
3 
3 
3 
3 
3 
3 
3 
3 
3 
3 
3 
3 
3 
3 
3 
3 
3 
3 
3 
3 
3 
3 
3 
3 
3 
3 
3 
3 
3 
3 
3 
3 
3 
3 
3 
3 
3 
3 
3 
3 
3 
3 
3 
3 
3 
3 
3 
3 
3 
3 
3 
3 
3 
3 
3 
3 
3 
3 
3 
3 
3 
3 
3 
3 
3 
3 
3 
3 
3 
3 
3 
3 
3 
3 
3 
3 
3 
3 
3 
3 
3 
3 
3 
3 
3 
3 
3 
3 
3 
3 
3 
3 
3 
3 
3 
3 
3 
3 
3 
3 
3 
3 
3 
3 
3 
3 
3 
3 
3 
3 
3 
3 
3 
3 
3 
3 
3 
3 
3 
3 
3 
3 
3 
3 
3 
3 
3 
3 
3 
3 
3 
3 
3 
3 
3 
3 
3 
3 
POINT_DATA 62
SCALARS GMDS_ID int 1
LOOKUP_TABLE default
1 2 3 4 5 6 7 8 9 10 11 12 13 14 15 16 17 18 19 20 21 22 23 24 25 26 27 28 29 30 31 32 33 34 35 37 38 39 40 41 42 43 44 45 46 47 48 49 50 51 52 53 54 55 56 57 58 59 60 61 62 63 
SCALARS geom_link_dim int 1
LOOKUP_TABLE default
1 1 1 0 1 1 1 2 2 2 2 1 1 3 3 2 2 0 3 0 2 1 1 2 3 2 2 3 0 1 3 2 2 3 2 3 0 2 1 0 2 3 1 1 2 3 2 2 1 1 2 2 1 1 2 2 0 3 3 0 2 2 
SCALARS geom_link_id int 1
LOOKUP_TABLE default
7 13 18 -1 2 9 10 8 16 24 9 8 1 1 2 14 11 -1 4 0 27 14 3 10 6 13 12 2 0 4 1 17 11 6 14 4 0 27 5 0 10 6 6 15 13 6 23 1 12 11 23 1 19 20 24 25 0 1 2 0 16 15 


CELL_DATA 138
SCALARS GMDS_ID int 1
LOOKUP_TABLE default
0 1 2 4 5 6 7 8 10 11 13 15 17 19 20 21 22 23 24 25 26 27 28 30 32 33 34 36 37 38 39 40 42 44 45 46 47 48 49 52 53 54 55 56 57 58 59 60 61 63 65 66 67 68 69 70 72 73 74 75 76 77 78 79 80 81 82 83 84 87 88 89 90 92 93 94 95 96 97 98 99 100 101 102 103 104 106 107 108 109 110 111 112 113 114 115 117 118 119 120 121 122 124 125 126 127 128 129 130 131 132 133 134 135 136 137 138 139 140 141 142 143 144 145 146 147 148 149 150 151 152 153 154 155 156 157 158 159 

SCALARS geom_link_dim int 1
LOOKUP_TABLE default
0 0 0 0 0 0 2 0 2 2 2 2 2 2 0 2 0 0 0 0 0 0 0 0 2 0 2 0 0 0 0 2 0 0 0 0 2 2 2 0 2 0 0 0 0 0 0 2 0 2 2 0 0 2 2 0 0 2 2 0 0 0 0 2 2 2 0 0 0 0 2 0 0 0 0 2 2 0 0 0 0 0 2 0 0 2 0 2 2 2 0 0 0 0 0 0 0 0 0 0 0 2 2 2 0 2 0 2 2 2 2 2 0 0 0 0 0 0 0 0 0 0 0 0 0 0 0 0 0 0 2 2 2 2 0 0 0 0 

SCALARS geom_link_id int 1
LOOKUP_TABLE default
0 0 0 0 0 0 27 0 12 12 8 16 24 9 0 30 0 0 0 0 0 0 0 0 14 0 11 0 0 0 0 27 0 0 0 0 9 7 27 0 10 0 0 0 0 0 0 13 0 28 23 0 0 17 17 0 0 11 11 0 0 0 0 21 14 14 0 0 0 0 22 0 0 0 0 10 10 0 0 0 0 0 19 0 0 29 0 26 13 13 0 0 0 0 0 0 0 0 0 0 0 23 8 18 0 20 0 23 24 24 25 25 0 0 0 0 0 0 0 0 0 0 0 0 0 0 0 0 0 0 16 16 15 15 0 0 0 0 

