# vtk DataFile Version 3.0
Generated by GMDS VTK Writer

ASCII
DATASET UNSTRUCTURED_GRID
POINTS 27 float
0 0 0
0 10 0
10 10 0
10 0 0
0 0 10
0 10 10
10 10 10
10 0 10
3 0 0
3 10 0
3 10 10
3 0 10
0 1 0
0 1 10
3 1 10
3 1 0
10 1 10
10 1 0
0 0 9
3 0 9
3 1 9
0 1 9
3 10 9
0 10 9
10 0 9
10 1 9
10 10 9

CELLS 54 162
2 20 14
2 4 13
2 0 18
2 0 12
2 15 20
2 13 5
2 18 4
2 12 1
2 0 8
2 8 3
2 1 9
2 9 2
2 5 10
2 10 6
2 4 11
2 11 7
2 19 11
2 8 19
2 11 14
2 14 10
2 8 15
2 15 9
2 13 14
2 12 15
2 7 16
2 16 6
2 3 17
2 17 2
2 16 14
2 17 15
2 12 21
2 21 13
2 18 19
2 19 20
2 21 20
2 18 21
2 9 22
2 22 10
2 1 23
2 23 5
2 22 20
2 23 22
2 23 21
2 3 24
2 24 7
2 17 25
2 25 16
2 24 19
2 20 25
2 24 25
2 2 26
2 26 6
2 26 22
2 26 25

CELL_TYPES 54
3 
3 
3 
3 
3 
3 
3 
3 
3 
3 
3 
3 
3 
3 
3 
3 
3 
3 
3 
3 
3 
3 
3 
3 
3 
3 
3 
3 
3 
3 
3 
3 
3 
3 
3 
3 
3 
3 
3 
3 
3 
3 
3 
3 
3 
3 
3 
3 
3 
3 
3 
3 
3 
3 
POINT_DATA 27
SCALARS GMDS_ID int 1
LOOKUP_TABLE default
0 1 2 3 4 5 6 7 8 9 10 11 12 13 14 15 16 17 18 19 20 21 22 23 24 25 26 
SCALARS geom_link_dim int 1
LOOKUP_TABLE default
0 1 1 1 0 1 1 1 2 2 2 2 1 1 3 3 2 2 0 3 0 2 1 1 2 3 2 
SCALARS geom_link_id int 1
LOOKUP_TABLE default
-1 7 13 18 -1 2 9 10 8 16 24 9 8 1 1 2 14 11 -1 4 -1 27 14 3 10 6 13 


CELL_DATA 54
SCALARS GMDS_ID int 1
LOOKUP_TABLE default
0 1 2 3 4 5 6 7 12 13 14 15 16 17 18 19 20 22 24 25 26 27 29 31 32 33 34 35 36 38 39 40 41 42 43 44 45 46 47 48 49 50 51 52 53 54 55 56 57 58 59 60 61 62 

SCALARS geom_link_dim int 1
LOOKUP_TABLE default
0 0 0 0 0 2 0 2 0 0 2 2 2 2 0 0 0 0 0 0 0 0 0 0 2 2 2 2 0 0 2 2 0 0 0 0 0 0 0 2 0 2 0 2 2 0 0 0 0 0 2 2 0 0 

SCALARS geom_link_id int 1
LOOKUP_TABLE default
-1 0 -1 0 -1 17 -1 12 0 0 16 16 24 24 0 0 -1 -1 0 0 0 0 0 0 14 14 11 11 0 0 27 27 -1 -1 -1 -1 -1 -1 -1 7 -1 25 -1 10 10 -1 -1 -1 -1 -1 13 13 -1 -1 

