# vtk DataFile Version 3.0
Generated by GMDS VTK Writer

ASCII
DATASET UNSTRUCTURED_GRID
POINTS 47 float
3 0 7
0 10 0
10 10 0
10 0 0
0 0 10
0 10 10
10 10 10
10 0 10
0 1 0
0 1 10
10 1 10
10 1 0
0 8 0
0 8 10
10 8 10
10 8 0
0 0 7
10 0 7
10 1 7
0 1 7
10 8 7
0 8 7
10 10 7
0 10 7
1 0 7
1 1 7
1 1 10
1 0 10
1 0 0
1 1 0
1 8 0
1 8 7
1 8 10
1 10 0
1 10 7
1 10 10
3 1 7
3 1 10
3 0 10
3 0 0
3 1 0
3 8 0
3 8 7
3 8 10
3 10 0
3 10 7
3 10 10

CELLS 101 303
2 13 5
2 36 25
2 9 13
2 11 40
2 12 1
2 37 26
2 8 12
2 37 36
2 25 19
2 24 16
2 18 36
2 3 17
2 4 9
2 17 7
2 7 10
2 16 4
2 3 11
2 17 0
2 38 37
2 39 28
2 10 14
2 14 6
2 11 15
2 15 2
2 27 4
2 7 38
2 26 9
2 38 27
2 11 18
2 18 10
2 8 19
2 19 9
2 3 39
2 17 18
2 38 0
2 16 19
2 15 20
2 20 14
2 12 21
2 21 13
2 18 20
2 0 36
2 19 21
2 2 22
2 22 6
2 1 23
2 23 5
2 22 20
2 10 37
2 23 21
2 24 25
2 26 25
2 27 26
2 27 24
2 0 24
2 29 8
2 28 29
2 29 25
2 28 24
2 30 12
2 31 21
2 29 30
2 30 31
2 25 31
2 32 13
2 32 31
2 26 32
2 33 1
2 34 23
2 33 30
2 31 34
2 33 34
2 35 5
2 35 32
2 35 34
2 40 29
2 39 40
2 40 36
2 39 0
2 15 41
2 41 30
2 20 42
2 42 31
2 40 41
2 41 42
2 36 42
2 14 43
2 43 32
2 43 42
2 37 43
2 2 44
2 44 33
2 22 45
2 45 34
2 44 41
2 42 45
2 44 45
2 6 46
2 46 35
2 46 43
2 46 45

CELL_TYPES 101
3 
3 
3 
3 
3 
3 
3 
3 
3 
3 
3 
3 
3 
3 
3 
3 
3 
3 
3 
3 
3 
3 
3 
3 
3 
3 
3 
3 
3 
3 
3 
3 
3 
3 
3 
3 
3 
3 
3 
3 
3 
3 
3 
3 
3 
3 
3 
3 
3 
3 
3 
3 
3 
3 
3 
3 
3 
3 
3 
3 
3 
3 
3 
3 
3 
3 
3 
3 
3 
3 
3 
3 
3 
3 
3 
3 
3 
3 
3 
3 
3 
3 
3 
3 
3 
3 
3 
3 
3 
3 
3 
3 
3 
3 
3 
3 
3 
3 
3 
3 
3 
POINT_DATA 47
SCALARS GMDS_ID int 1
LOOKUP_TABLE default
0 1 2 3 4 5 6 7 8 9 10 11 12 13 14 15 16 17 18 19 20 21 22 23 24 25 26 27 28 29 30 31 32 33 34 35 36 37 38 39 40 41 42 43 44 45 46 
SCALARS geom_link_dim int 1
LOOKUP_TABLE default
3 1 1 1 0 1 1 1 1 1 2 2 2 2 2 2 0 2 3 2 3 1 2 1 2 2 1 1 1 1 3 0 3 2 2 2 0 3 2 2 3 3 0 3 2 1 2 
SCALARS geom_link_id int 1
LOOKUP_TABLE default
4 7 13 18 -1 2 9 10 8 1 14 11 12 17 14 11 -1 10 6 27 6 5 13 6 23 1 12 11 19 20 2 0 1 16 15 24 -1 1 9 8 2 2 -1 1 16 15 24 


CELL_DATA 101
SCALARS GMDS_ID int 1
LOOKUP_TABLE default
0 1 2 3 4 5 6 7 9 11 12 13 14 15 16 17 18 19 21 23 24 25 26 27 28 29 30 31 32 33 34 35 36 37 38 39 40 41 42 43 44 45 46 47 48 49 50 51 52 53 54 55 56 57 59 61 62 63 64 66 68 69 70 71 73 74 75 77 79 80 81 82 84 85 86 87 88 89 90 91 92 93 94 95 96 97 98 99 100 101 102 103 104 105 106 107 108 109 110 111 112 

SCALARS geom_link_dim int 1
LOOKUP_TABLE default
2 0 2 0 2 0 2 0 0 0 0 2 0 2 2 0 2 0 0 2 2 2 2 2 0 2 2 2 0 0 2 2 2 0 0 0 0 0 0 0 0 0 0 2 2 2 0 0 0 2 0 0 2 2 0 2 2 0 2 0 0 0 0 0 0 0 0 2 2 0 0 0 2 0 0 0 0 0 0 0 0 0 0 0 0 0 0 0 0 0 2 2 0 2 0 0 0 2 2 0 0 

SCALARS geom_link_id int 1
LOOKUP_TABLE default
17 -1 17 -1 12 -1 12 -1 0 0 -1 10 0 10 14 0 11 -1 -1 8 14 14 11 11 0 9 21 9 0 0 27 27 8 0 -1 0 0 0 0 0 0 -1 0 13 13 19 0 0 -1 26 0 0 28 23 -1 18 20 0 23 0 0 0 0 0 0 0 0 16 15 0 0 0 24 0 0 -1 -1 -1 -1 -1 -1 -1 -1 -1 -1 -1 -1 -1 -1 -1 16 16 -1 15 -1 -1 -1 24 24 -1 -1 

