# vtk DataFile Version 3.0
Generated by GMDS VTK Writer

ASCII
DATASET UNSTRUCTURED_GRID
POINTS 24 float
0 0 0
0 10 0
10 10 0
10 0 0
0 0 10
0 10 10
10 10 10
10 0 10
0 1 0
0 1 10
10 1 10
10 1 0
0 0 7
10 0 7
10 1 7
0 1 7
10 10 7
0 10 7
0 8 0
10 8 0
10 8 7
0 8 7
10 8 10
0 8 10

CELLS 46 138
2 13 7
2 1 2
2 3 13
2 3 0
2 12 4
2 5 6
2 0 12
2 7 4
2 1 18
2 20 14
2 19 11
2 18 8
2 0 8
2 4 9
2 7 10
2 3 11
2 16 20
2 9 10
2 2 19
2 8 11
2 11 14
2 14 10
2 8 15
2 15 9
2 12 13
2 13 14
2 15 14
2 12 15
2 2 16
2 16 6
2 1 17
2 17 5
2 17 16
2 17 21
2 21 15
2 18 19
2 19 20
2 20 21
2 18 21
2 6 22
2 22 10
2 5 23
2 23 9
2 22 20
2 23 22
2 23 21

CELL_TYPES 46
3 
3 
3 
3 
3 
3 
3 
3 
3 
3 
3 
3 
3 
3 
3 
3 
3 
3 
3 
3 
3 
3 
3 
3 
3 
3 
3 
3 
3 
3 
3 
3 
3 
3 
3 
3 
3 
3 
3 
3 
3 
3 
3 
3 
3 
3 
POINT_DATA 24
SCALARS GMDS_ID int 1
LOOKUP_TABLE default
0 1 2 3 4 5 6 7 8 9 10 11 12 13 14 15 16 17 18 19 20 21 22 23 
SCALARS geom_link_dim int 1
LOOKUP_TABLE default
0 1 1 1 0 1 1 1 1 1 2 2 0 2 3 2 2 1 2 2 3 1 2 2 
SCALARS geom_link_id int 1
LOOKUP_TABLE default
-1 7 13 18 -1 2 9 10 8 1 14 11 -1 10 6 27 13 6 12 11 6 5 14 17 


CELL_DATA 46
SCALARS GMDS_ID int 1
LOOKUP_TABLE default
0 1 2 3 4 5 6 7 8 9 10 11 12 14 16 18 20 21 22 23 24 25 26 27 28 29 30 31 32 33 34 35 37 39 40 41 42 43 44 45 46 47 48 49 50 51 

SCALARS geom_link_dim int 1
LOOKUP_TABLE default
2 2 2 0 0 2 0 0 2 0 2 2 0 0 0 2 0 0 2 0 0 0 2 2 0 0 0 0 2 2 2 0 0 2 0 0 0 0 0 0 0 2 2 0 0 0 

SCALARS geom_link_id int 1
LOOKUP_TABLE default
10 16 10 0 0 24 0 0 12 -1 11 12 0 0 0 11 -1 0 11 0 0 0 27 27 0 0 0 0 13 13 19 0 0 26 -1 -1 -1 -1 -1 -1 -1 17 17 -1 -1 -1 

