# vtk DataFile Version 3.0
Generated by GMDS VTK Writer

ASCII
DATASET UNSTRUCTURED_GRID
POINTS 48 float
0 0 0
0 10 0
10 10 0
10 0 0
0 0 10
0 10 10
10 10 10
10 0 10
0 0 7
10 0 7
10 10 7
0 10 7
3 0 0
3 10 0
3 10 7
3 0 7
3 10 10
3 0 10
0 8 0
0 8 7
3 8 7
3 8 0
10 8 7
10 8 0
0 8 10
3 8 10
10 8 10
0 1 0
0 1 7
3 1 7
3 1 0
10 1 7
10 1 0
0 1 10
3 1 10
10 1 10
1 8 0
1 8 7
1 10 7
1 10 0
1 1 0
1 1 7
1 0 0
1 0 7
1 8 10
1 10 10
1 0 10
1 1 10

CELLS 75 375
4 19 28 41 37 
4 13 14 10 2 
4 3 9 31 32 
4 31 29 20 22 
4 21 20 14 13 
4 40 41 29 30 
4 9 15 29 31 
4 27 28 41 40 
4 18 19 11 1 
4 36 37 38 39 
4 30 29 20 21 
4 12 15 29 30 
4 12 15 9 3 
4 16 14 10 6 
4 27 28 19 18 
4 17 15 9 7 
4 0 8 28 27 
4 39 36 21 13 
4 22 20 14 10 
4 1 18 36 39 
4 23 22 10 2 
4 39 38 14 13 
4 23 21 13 2 
4 21 20 22 23 
4 1 11 38 39 
4 24 19 11 5 
4 38 37 20 14 
4 20 25 16 14 
4 11 19 37 38 
4 36 37 20 21 
4 26 22 10 6 
4 18 19 37 36 
4 26 25 16 6 
4 25 20 22 26 
4 32 31 22 23 
4 3 12 30 32 
4 32 30 21 23 
4 30 29 31 32 
4 4 8 28 33 
4 33 28 19 24 
4 15 17 34 29 
4 29 34 25 20 
4 7 9 31 35 
4 35 31 22 26 
4 7 17 34 35 
4 35 34 25 26 
4 34 29 31 35 
4 37 41 29 20 
4 18 27 40 36 
4 36 40 30 21 
4 40 41 37 36 
4 0 8 43 42 
4 42 43 15 12 
4 8 28 41 43 
4 43 41 29 15 
4 0 27 40 42 
4 42 40 30 12 
4 42 43 41 40 
4 19 24 44 37 
4 37 44 25 20 
4 5 11 38 45 
4 45 38 14 16 
4 5 24 44 45 
4 45 44 25 16 
4 44 37 38 45 
4 4 8 43 46 
4 46 43 15 17 
4 28 33 47 41 
4 41 47 34 29 
4 4 33 47 46 
4 46 47 34 17 
4 46 43 41 47 
4 24 33 47 44 
4 44 47 34 25 
4 47 41 37 44 

CELL_TYPES 75
9 
9 
9 
9 
9 
9 
9 
9 
9 
9 
9 
9 
9 
9 
9 
9 
9 
9 
9 
9 
9 
9 
9 
9 
9 
9 
9 
9 
9 
9 
9 
9 
9 
9 
9 
9 
9 
9 
9 
9 
9 
9 
9 
9 
9 
9 
9 
9 
9 
9 
9 
9 
9 
9 
9 
9 
9 
9 
9 
9 
9 
9 
9 
9 
9 
9 
9 
9 
9 
9 
9 
9 
9 
9 
9 
POINT_DATA 48
SCALARS GMDS_ID int 1
LOOKUP_TABLE default
0 1 2 3 4 5 6 7 8 9 10 11 12 13 14 15 16 17 18 19 20 21 22 23 24 25 26 27 28 29 30 31 32 33 34 35 36 37 38 39 40 41 42 43 44 45 46 47 
SCALARS geom_link_dim int 1
LOOKUP_TABLE default
0 1 1 1 0 1 1 1 0 2 2 1 2 2 1 3 2 2 2 1 0 3 3 2 2 3 2 1 2 0 3 3 2 1 3 2 3 0 2 2 1 0 1 2 3 2 1 1 
SCALARS geom_link_id int 1
LOOKUP_TABLE default
-1 7 13 18 -1 2 9 10 -1 10 13 6 8 16 15 4 24 9 12 5 0 2 6 11 17 1 14 8 27 0 2 6 11 1 1 14 2 -1 15 16 20 -1 19 23 1 24 11 12 


CELL_DATA 75
SCALARS GMDS_ID int 1
LOOKUP_TABLE default
0 1 3 4 5 6 8 10 11 14 15 16 18 21 23 25 26 29 30 31 32 33 34 35 36 37 38 39 40 43 44 45 46 47 48 49 50 51 52 53 54 55 59 60 61 62 63 64 65 66 67 68 69 70 71 72 73 74 75 76 77 78 79 80 81 82 83 84 85 86 87 88 89 90 91 

SCALARS geom_link_dim int 1
LOOKUP_TABLE default
0 0 0 0 0 0 0 0 0 0 0 0 0 0 0 0 0 0 0 0 0 0 0 0 0 0 0 0 0 0 0 0 0 0 0 0 0 0 0 0 0 0 0 0 0 0 0 0 0 0 0 0 0 0 0 0 0 0 0 0 0 0 0 0 0 0 0 0 0 0 0 0 0 0 0 

SCALARS geom_link_id int 1
LOOKUP_TABLE default
-1 0 0 0 0 -1 0 -1 0 -1 0 0 0 0 0 0 0 -1 0 -1 0 -1 0 0 -1 0 -1 0 -1 -1 0 -1 0 0 0 0 0 0 0 0 0 0 0 0 0 0 0 -1 -1 -1 -1 -1 -1 -1 -1 -1 -1 -1 -1 -1 -1 -1 -1 -1 -1 -1 -1 -1 -1 -1 -1 -1 -1 -1 -1 

