# vtk DataFile Version 3.0
Generated by GMDS VTK Writer

ASCII
DATASET UNSTRUCTURED_GRID
POINTS 63 float
0 10 0
10 10 0
10 0 0
0 0 10
0 10 10
10 10 10
10 0 10
0 1 0
0 1 10
10 1 10
10 1 0
0 0 7
10 0 7
10 1 7
0 1 7
10 10 7
0 10 7
0 8 0
10 8 0
10 8 7
0 8 7
10 8 10
0 8 10
0 0 9
10 0 9
10 1 9
0 1 9
0 10 9
10 10 9
10 8 9
0 8 9
1 0 0
1 1 0
1 1 7
1 0 7
1 8 0
1 8 7
1 10 0
1 10 7
1 0 9
1 1 9
1 0 10
1 1 10
1 10 10
1 8 10
1 8 9
1 10 9
3 0 0
3 1 0
3 1 7
3 0 7
3 8 0
3 8 7
3 10 0
3 10 7
3 0 9
3 1 9
3 0 10
3 1 10
3 10 10
3 8 10
3 8 9
3 10 9

CELLS 94 470
4 2 10 13 12 
4 0 16 20 17 
4 31 32 33 34 
4 24 25 56 55 
4 53 54 52 51 
4 1 18 51 53 
4 3 8 26 23 
4 1 15 19 18 
4 54 52 36 38 
4 15 19 52 54 
4 1 15 54 53 
4 49 52 36 33 
4 34 33 14 11 
4 6 9 25 24 
4 13 19 52 49 
4 17 20 14 7 
4 18 19 52 51 
4 32 33 14 7 
4 47 48 49 50 
4 47 50 34 31 
4 23 26 14 11 
4 2 12 50 47 
4 50 49 33 34 
4 12 13 49 50 
4 5 21 29 28 
4 28 29 19 15 
4 48 49 33 32 
4 10 13 49 48 
4 4 22 30 27 
4 27 30 20 16 
4 47 48 32 31 
4 9 21 29 25 
4 25 29 19 13 
4 8 22 30 26 
4 26 30 20 14 
4 2 10 48 47 
4 35 36 20 17 
4 33 36 20 14 
4 32 35 17 7 
4 35 36 33 32 
4 37 38 16 0 
4 38 36 20 16 
4 37 35 17 0 
4 37 38 36 35 
4 39 40 26 23 
4 33 40 26 14 
4 34 39 23 11 
4 39 40 33 34 
4 41 42 8 3 
4 42 40 26 8 
4 41 39 23 3 
4 41 42 40 39 
4 43 44 22 4 
4 44 45 30 22 
4 46 45 30 27 
4 43 46 27 4 
4 43 44 45 46 
4 36 45 30 20 
4 38 46 27 16 
4 46 45 36 38 
4 42 44 22 8 
4 40 45 30 26 
4 42 44 45 40 
4 40 45 36 33 
4 55 56 40 39 
4 13 25 56 49 
4 49 56 40 33 
4 6 9 58 57 
4 57 58 42 41 
4 9 25 56 58 
4 58 56 40 42 
4 6 24 55 57 
4 57 55 39 41 
4 57 58 56 55 
4 5 21 60 59 
4 59 60 44 43 
4 21 29 61 60 
4 60 61 45 44 
4 28 29 61 62 
4 62 61 45 46 
4 5 28 62 59 
4 59 62 46 43 
4 59 60 61 62 
4 19 29 61 52 
4 52 61 45 36 
4 15 28 62 54 
4 54 62 46 38 
4 62 61 52 54 
4 9 21 60 58 
4 58 60 44 42 
4 25 29 61 56 
4 56 61 45 40 
4 58 60 61 56 
4 56 61 52 49 

CELL_TYPES 94
9 
9 
9 
9 
9 
9 
9 
9 
9 
9 
9 
9 
9 
9 
9 
9 
9 
9 
9 
9 
9 
9 
9 
9 
9 
9 
9 
9 
9 
9 
9 
9 
9 
9 
9 
9 
9 
9 
9 
9 
9 
9 
9 
9 
9 
9 
9 
9 
9 
9 
9 
9 
9 
9 
9 
9 
9 
9 
9 
9 
9 
9 
9 
9 
9 
9 
9 
9 
9 
9 
9 
9 
9 
9 
9 
9 
9 
9 
9 
9 
9 
9 
9 
9 
9 
9 
9 
9 
9 
9 
9 
9 
9 
9 
POINT_DATA 63
SCALARS GMDS_ID int 1
LOOKUP_TABLE default
0 1 2 3 4 5 6 7 8 9 10 11 12 13 14 15 16 17 18 19 20 21 22 23 24 25 26 27 28 29 30 31 32 33 34 35 36 37 38 39 40 41 42 43 44 45 46 47 48 49 50 51 52 53 54 55 56 57 58 59 60 61 62 
SCALARS geom_link_dim int 1
LOOKUP_TABLE default
1 1 1 0 1 1 1 1 1 2 2 0 2 2 2 2 1 2 2 3 1 2 2 0 2 2 2 1 2 3 1 1 1 2 2 3 2 2 2 2 2 1 1 2 3 0 2 2 3 0 3 3 1 2 1 3 0 2 3 2 3 0 1 
SCALARS geom_link_id int 1
LOOKUP_TABLE default
7 13 18 -1 2 9 10 8 1 14 11 -1 10 10 27 13 6 12 11 6 5 14 17 -1 10 10 27 3 13 6 4 19 20 1 23 2 5 16 15 23 1 11 12 24 1 0 25 8 2 -1 4 2 17 16 15 4 -1 9 1 24 1 0 14 


CELL_DATA 94
SCALARS GMDS_ID int 1
LOOKUP_TABLE default
0 1 2 3 4 6 7 8 9 10 11 14 15 16 17 18 19 20 21 22 23 24 25 26 27 28 29 30 31 32 33 34 35 36 37 38 39 40 41 42 43 44 45 46 47 48 49 50 51 52 53 54 55 56 57 58 59 60 61 62 63 64 65 66 67 68 69 70 71 72 73 74 75 76 77 78 79 80 81 82 83 84 85 86 87 88 89 90 91 92 93 94 95 96 

SCALARS geom_link_dim int 1
LOOKUP_TABLE default
0 0 0 0 0 0 0 0 0 0 0 0 0 0 0 0 0 0 0 0 0 0 0 0 0 0 0 0 0 0 0 0 0 0 0 0 0 0 0 0 0 0 0 0 0 0 0 0 0 0 0 0 0 0 0 0 0 0 0 0 0 0 0 0 0 0 0 0 0 0 0 0 0 0 0 0 0 0 0 0 0 0 0 0 0 0 0 0 0 0 0 0 0 0 

SCALARS geom_link_id int 1
LOOKUP_TABLE default
0 0 0 0 0 0 0 0 0 0 0 0 0 0 0 0 0 0 0 0 0 0 0 0 0 0 0 0 0 0 0 0 0 0 0 0 0 0 0 0 0 0 0 0 0 0 0 0 0 0 0 0 0 0 0 0 0 0 0 0 0 0 0 0 0 0 0 0 0 0 0 0 0 0 0 0 0 0 0 0 0 0 0 0 0 0 0 0 0 0 0 0 0 0 

