# vtk DataFile Version 3.0
Generated by GMDS VTK Writer

ASCII
DATASET UNSTRUCTURED_GRID
POINTS 45 float
3 0 7
0 10 0
10 10 0
10 0 0
0 10 10
10 10 10
10 0 10
0 1 0
0 1 10
10 1 10
10 1 0
0 8 0
0 8 10
10 8 10
10 8 0
10 0 7
10 1 7
0 1 7
10 8 7
0 8 7
10 10 7
0 10 7
1 0 7
1 1 7
1 1 10
1 0 10
1 0 0
1 1 0
1 8 0
1 8 7
1 8 10
1 10 0
1 10 7
1 10 10
3 1 7
3 1 10
3 0 10
3 0 0
3 1 0
3 8 0
3 8 7
3 8 10
3 10 0
3 10 7
3 10 10

CELLS 68 340
4 39 40 29 28 
4 14 18 40 39 
4 22 23 24 25 
4 15 16 9 6 
4 38 39 28 27 
4 3 10 16 15 
4 10 14 39 38 
4 37 38 34 0 
4 37 0 22 26 
4 24 23 17 8 
4 3 15 0 37 
4 38 34 23 27 
4 10 16 34 38 
4 37 38 27 26 
4 9 16 34 35 
4 3 10 38 37 
4 10 14 18 16 
4 16 18 13 9 
4 0 34 35 36 
4 36 0 22 25 
4 7 11 19 17 
4 17 19 12 8 
4 6 15 0 36 
4 2 14 18 20 
4 20 18 13 5 
4 36 35 24 25 
4 6 9 35 36 
4 1 11 19 21 
4 21 19 12 4 
4 35 34 23 24 
4 0 34 23 22 
4 27 23 17 7 
4 15 16 34 0 
4 26 27 23 22 
4 27 28 11 7 
4 28 29 19 11 
4 23 29 19 17 
4 27 28 29 23 
4 30 29 19 12 
4 24 30 12 8 
4 23 29 30 24 
4 31 28 11 1 
4 29 32 21 19 
4 31 32 21 1 
4 31 28 29 32 
4 33 30 12 4 
4 33 32 21 4 
4 32 29 30 33 
4 16 18 40 34 
4 34 40 29 23 
4 38 39 40 34 
4 13 18 40 41 
4 41 40 29 30 
4 9 13 41 35 
4 35 41 30 24 
4 34 40 41 35 
4 2 14 39 42 
4 42 39 28 31 
4 18 20 43 40 
4 40 43 32 29 
4 2 20 43 42 
4 42 43 32 31 
4 42 39 40 43 
4 5 13 41 44 
4 44 41 30 33 
4 5 20 43 44 
4 44 43 32 33 
4 43 40 41 44 

CELL_TYPES 68
9 
9 
9 
9 
9 
9 
9 
9 
9 
9 
9 
9 
9 
9 
9 
9 
9 
9 
9 
9 
9 
9 
9 
9 
9 
9 
9 
9 
9 
9 
9 
9 
9 
9 
9 
9 
9 
9 
9 
9 
9 
9 
9 
9 
9 
9 
9 
9 
9 
9 
9 
9 
9 
9 
9 
9 
9 
9 
9 
9 
9 
9 
9 
9 
9 
9 
9 
9 
POINT_DATA 45
SCALARS GMDS_ID int 1
LOOKUP_TABLE default
0 1 2 3 5 6 7 8 9 10 11 12 13 14 15 17 18 19 20 21 22 23 24 25 26 27 28 29 30 31 32 33 34 35 36 37 38 39 40 41 42 43 44 45 46 
SCALARS geom_link_dim int 1
LOOKUP_TABLE default
3 1 1 1 1 1 1 1 1 2 2 2 2 2 2 2 3 2 3 1 2 1 2 2 1 1 1 1 3 0 3 2 2 2 0 3 2 2 3 3 0 3 2 1 2 
SCALARS geom_link_id int 1
LOOKUP_TABLE default
4 7 13 18 2 9 10 8 1 14 11 12 17 14 11 10 6 27 6 5 13 6 23 1 12 11 19 20 2 0 1 16 15 24 0 1 9 8 2 2 0 1 16 15 24 


CELL_DATA 68
SCALARS GMDS_ID int 1
LOOKUP_TABLE default
0 1 3 7 8 9 11 12 13 14 17 18 20 21 22 24 25 26 27 28 29 30 31 32 33 34 35 36 37 38 39 41 43 44 46 48 50 51 53 55 56 58 60 62 63 65 67 68 69 70 71 72 73 74 75 76 77 78 79 80 81 82 83 84 85 86 87 88 

SCALARS geom_link_dim int 1
LOOKUP_TABLE default
0 0 0 0 0 0 0 0 0 0 0 0 0 0 0 0 0 0 0 0 0 0 0 0 0 0 0 0 0 0 0 0 0 0 0 0 0 0 0 0 0 0 0 0 0 0 0 0 0 0 0 0 0 0 0 0 0 0 0 0 0 0 0 0 0 0 0 0 

SCALARS geom_link_id int 1
LOOKUP_TABLE default
0 0 0 0 0 0 0 0 0 0 0 0 0 0 0 0 0 0 0 0 0 0 0 0 0 0 0 0 0 0 0 0 0 0 0 0 0 0 0 0 0 0 0 0 0 0 0 0 0 0 0 0 0 0 0 0 0 0 0 0 0 0 0 0 0 0 0 0 

