# vtk DataFile Version 3.0
Generated by GMDS VTK Writer

ASCII
DATASET UNSTRUCTURED_GRID
POINTS 36 float
0 0 0
0 10 0
10 10 0
10 0 0
0 0 10
0 10 10
10 10 10
10 0 10
3 0 0
3 10 0
3 10 10
3 0 10
0 1 0
0 1 10
3 1 10
3 1 0
10 1 10
10 1 0
0 0 9
3 0 9
3 1 9
0 1 9
3 10 9
0 10 9
10 0 9
10 1 9
10 10 9
0 8 0
3 8 0
3 8 9
0 8 9
3 8 10
0 8 10
10 8 0
10 8 9
10 8 10

CELLS 52 260
4 0 12 21 18 
4 4 11 14 13 
4 21 20 14 13 
4 5 10 31 32 
4 31 29 20 14 
4 12 15 20 21 
4 19 20 14 11 
4 10 22 29 31 
4 27 28 29 30 
4 8 15 20 19 
4 18 19 11 4 
4 27 30 21 12 
4 1 23 30 27 
4 0 8 19 18 
4 29 30 21 20 
4 22 23 30 29 
4 0 8 15 12 
4 28 29 20 15 
4 7 11 14 16 
4 9 22 29 28 
4 27 28 15 12 
4 3 8 15 17 
4 1 9 28 27 
4 18 21 13 4 
4 18 19 20 21 
4 1 9 22 23 
4 23 22 10 5 
4 3 8 19 24 
4 24 19 11 7 
4 15 17 25 20 
4 20 25 16 14 
4 3 17 25 24 
4 24 25 16 7 
4 24 19 20 25 
4 2 9 22 26 
4 26 22 10 6 
4 32 31 14 13 
4 5 23 30 32 
4 32 30 21 13 
4 30 29 31 32 
4 2 9 28 33 
4 33 28 15 17 
4 22 26 34 29 
4 29 34 25 20 
4 2 26 34 33 
4 33 34 25 17 
4 33 28 29 34 
4 6 10 31 35 
4 35 31 14 16 
4 6 26 34 35 
4 35 34 25 16 
4 34 29 31 35 

CELL_TYPES 52
9 
9 
9 
9 
9 
9 
9 
9 
9 
9 
9 
9 
9 
9 
9 
9 
9 
9 
9 
9 
9 
9 
9 
9 
9 
9 
9 
9 
9 
9 
9 
9 
9 
9 
9 
9 
9 
9 
9 
9 
9 
9 
9 
9 
9 
9 
9 
9 
9 
9 
9 
9 
POINT_DATA 36
SCALARS GMDS_ID int 1
LOOKUP_TABLE default
0 1 2 3 4 5 6 7 8 9 10 11 12 13 14 15 16 17 18 19 20 21 22 23 24 25 26 27 28 29 30 31 32 33 34 35 
SCALARS geom_link_dim int 1
LOOKUP_TABLE default
0 1 1 1 0 1 1 1 2 2 2 2 1 1 3 3 2 2 0 3 0 2 1 1 2 3 2 2 3 0 1 3 2 2 3 2 
SCALARS geom_link_id int 1
LOOKUP_TABLE default
-1 7 13 18 -1 2 9 10 8 16 24 9 8 1 1 2 14 11 -1 4 0 27 14 3 10 6 13 12 2 -1 4 1 17 11 6 14 


CELL_DATA 52
SCALARS GMDS_ID int 1
LOOKUP_TABLE default
1 2 3 4 5 6 7 8 9 10 11 12 13 14 15 16 17 19 20 22 23 24 26 27 28 31 32 36 37 38 39 40 41 42 43 44 48 49 50 51 52 53 54 55 56 57 58 59 60 61 62 63 

SCALARS geom_link_dim int 1
LOOKUP_TABLE default
0 0 0 0 0 0 0 0 0 0 0 0 0 0 0 0 0 0 0 0 0 0 0 0 0 0 0 0 0 0 0 0 0 0 0 0 0 0 0 0 0 0 0 0 0 0 0 0 0 0 0 0 

SCALARS geom_link_id int 1
LOOKUP_TABLE default
0 0 0 -1 -1 0 0 -1 -1 0 0 -1 -1 0 -1 -1 0 -1 0 -1 -1 0 -1 0 0 0 0 0 0 0 0 0 0 0 0 0 -1 -1 -1 -1 -1 -1 -1 -1 -1 -1 -1 -1 -1 -1 -1 -1 

