# vtk DataFile Version 3.0
Generated by GMDS VTK Writer

ASCII
DATASET UNSTRUCTURED_GRID
POINTS 18 float
0 0 0
0 10 0
10 10 0
10 0 0
0 0 10
0 10 10
10 10 10
10 0 10
0 1 0
0 1 10
10 1 10
10 1 0
0 0 7
10 0 7
10 1 7
0 1 7
10 10 7
0 10 7

CELLS 20 100
4 13 14 10 7 
4 3 11 14 13 
4 12 13 7 4 
4 0 3 13 12 
4 4 7 10 9 
4 9 10 6 5 
4 0 3 11 8 
4 8 11 2 1 
4 8 11 14 15 
4 15 14 10 9 
4 0 8 15 12 
4 12 15 9 4 
4 12 13 14 15 
4 2 11 14 16 
4 16 14 10 6 
4 1 2 16 17 
4 17 16 6 5 
4 1 8 15 17 
4 17 15 9 5 
4 15 14 16 17 

CELL_TYPES 20
9 
9 
9 
9 
9 
9 
9 
9 
9 
9 
9 
9 
9 
9 
9 
9 
9 
9 
9 
9 
POINT_DATA 18
SCALARS GMDS_ID int 1
LOOKUP_TABLE default
0 1 2 3 4 5 6 7 8 9 10 11 12 13 14 15 16 17 
SCALARS geom_link_dim int 1
LOOKUP_TABLE default
0 1 1 1 0 1 1 1 1 1 2 2 0 2 3 2 2 1 
SCALARS geom_link_id int 1
LOOKUP_TABLE default
-1 7 13 18 -1 2 9 10 8 1 14 11 -1 10 6 27 13 6 


CELL_DATA 20
SCALARS GMDS_ID int 1
LOOKUP_TABLE default
0 1 3 5 8 9 12 13 15 16 17 18 19 20 21 22 23 24 25 26 

SCALARS geom_link_dim int 1
LOOKUP_TABLE default
0 0 0 0 0 0 0 0 0 0 0 0 0 0 0 0 0 0 0 0 

SCALARS geom_link_id int 1
LOOKUP_TABLE default
-1 -1 -1 -1 0 0 0 0 -1 -1 -1 -1 -1 -1 -1 -1 -1 -1 -1 -1 

