# vtk DataFile Version 3.0
Generated by GMDS VTK Writer

ASCII
DATASET UNSTRUCTURED_GRID
POINTS 36 float
0 0 0
0 10 0
10 10 0
10 0 0
0 0 10
0 10 10
10 10 10
10 0 10
0 1 0
0 1 10
10 1 10
10 1 0
0 8 0
0 8 10
10 8 10
10 8 0
0 0 7
10 0 7
10 1 7
0 1 7
10 8 7
0 8 7
10 10 7
0 10 7
1 0 7
1 1 7
1 1 10
1 0 10
1 0 0
1 1 0
1 8 0
1 8 7
1 8 10
1 10 0
1 10 7
1 10 10

CELLS 52 260
4 3 11 29 28 
4 24 25 26 27 
4 27 24 16 4 
4 7 17 24 27 
4 27 26 9 4 
4 17 18 10 7 
4 3 11 18 17 
4 7 10 26 27 
4 26 25 19 9 
4 10 18 25 26 
4 24 25 19 16 
4 17 18 25 24 
4 0 8 19 16 
4 16 19 9 4 
4 11 15 20 18 
4 18 20 14 10 
4 8 12 21 19 
4 19 21 13 9 
4 2 15 20 22 
4 22 20 14 6 
4 1 12 21 23 
4 23 21 13 5 
4 28 29 8 0 
4 11 18 25 29 
4 29 25 19 8 
4 3 17 24 28 
4 28 24 16 0 
4 28 29 25 24 
4 11 15 30 29 
4 29 30 12 8 
4 15 20 31 30 
4 30 31 21 12 
4 18 20 31 25 
4 25 31 21 19 
4 29 30 31 25 
4 14 20 31 32 
4 32 31 21 13 
4 10 14 32 26 
4 26 32 13 9 
4 25 31 32 26 
4 2 15 30 33 
4 33 30 12 1 
4 20 22 34 31 
4 31 34 23 21 
4 2 22 34 33 
4 33 34 23 1 
4 33 30 31 34 
4 6 14 32 35 
4 35 32 13 5 
4 6 22 34 35 
4 35 34 23 5 
4 34 31 32 35 

CELL_TYPES 52
9 
9 
9 
9 
9 
9 
9 
9 
9 
9 
9 
9 
9 
9 
9 
9 
9 
9 
9 
9 
9 
9 
9 
9 
9 
9 
9 
9 
9 
9 
9 
9 
9 
9 
9 
9 
9 
9 
9 
9 
9 
9 
9 
9 
9 
9 
9 
9 
9 
9 
9 
9 
POINT_DATA 36
SCALARS GMDS_ID int 1
LOOKUP_TABLE default
0 1 2 3 4 5 6 7 8 9 10 11 12 13 14 15 16 17 18 19 20 21 22 23 24 25 26 27 28 29 30 31 32 33 34 35 
SCALARS geom_link_dim int 1
LOOKUP_TABLE default
0 1 1 1 0 1 1 1 1 1 2 2 2 2 2 2 0 2 3 2 3 1 2 1 2 0 1 1 1 1 3 0 3 2 2 2 
SCALARS geom_link_id int 1
LOOKUP_TABLE default
-1 7 13 18 -1 2 9 10 8 1 14 11 12 17 14 11 -1 10 6 27 6 5 13 6 23 -1 12 11 19 20 2 -1 1 16 15 24 


CELL_DATA 52
SCALARS GMDS_ID int 1
LOOKUP_TABLE default
2 3 4 5 6 7 9 10 14 15 16 19 22 23 25 26 29 30 32 33 36 37 39 40 41 42 43 44 45 46 47 48 49 50 51 52 53 54 55 56 57 58 59 60 61 62 63 64 65 66 67 68 

SCALARS geom_link_dim int 1
LOOKUP_TABLE default
0 0 0 0 0 0 0 0 0 0 0 0 0 0 0 0 0 0 0 0 0 0 0 0 0 0 0 0 0 0 0 0 0 0 0 0 0 0 0 0 0 0 0 0 0 0 0 0 0 0 0 0 

SCALARS geom_link_id int 1
LOOKUP_TABLE default
-1 -1 -1 -1 -1 0 0 -1 -1 -1 -1 -1 0 0 0 0 0 0 0 0 0 0 -1 -1 -1 -1 -1 -1 -1 -1 -1 -1 -1 -1 -1 -1 -1 -1 -1 -1 -1 -1 -1 -1 -1 -1 -1 -1 -1 -1 -1 -1 

