# vtk DataFile Version 3.0
Generated by GMDS VTK Writer

ASCII
DATASET UNSTRUCTURED_GRID
POINTS 45 float
0 10 0
10 10 0
10 0 0
0 10 10
10 10 10
10 0 10
10 0 7
10 10 7
0 10 7
3 0 0
3 10 0
3 10 7
3 0 7
3 10 10
3 0 10
0 8 0
0 8 7
3 8 7
3 8 0
10 8 7
10 8 0
0 8 10
3 8 10
10 8 10
0 1 0
0 1 7
3 1 7
3 1 0
10 1 7
10 1 0
0 1 10
3 1 10
10 1 10
1 8 0
1 8 7
1 10 7
1 10 0
1 1 0
1 1 7
1 0 0
1 0 7
1 8 10
1 10 10
1 0 10
1 1 10

CELLS 68 340
4 16 25 38 34 
4 10 11 7 1 
4 2 6 28 29 
4 28 26 17 19 
4 18 17 11 10 
4 37 38 26 27 
4 6 12 26 28 
4 24 25 38 37 
4 15 16 8 0 
4 33 34 35 36 
4 27 26 17 18 
4 9 12 26 27 
4 9 12 6 2 
4 13 11 7 4 
4 24 25 16 15 
4 14 12 6 5 
4 36 33 18 10 
4 19 17 11 7 
4 0 15 33 36 
4 20 19 7 1 
4 36 35 11 10 
4 20 18 10 1 
4 18 17 19 20 
4 0 8 35 36 
4 21 16 8 3 
4 35 34 17 11 
4 17 22 13 11 
4 8 16 34 35 
4 33 34 17 18 
4 23 19 7 4 
4 15 16 34 33 
4 23 22 13 4 
4 22 17 19 23 
4 29 28 19 20 
4 2 9 27 29 
4 29 27 18 20 
4 27 26 28 29 
4 30 25 16 21 
4 12 14 31 26 
4 26 31 22 17 
4 5 6 28 32 
4 32 28 19 23 
4 5 14 31 32 
4 32 31 22 23 
4 31 26 28 32 
4 34 38 26 17 
4 15 24 37 33 
4 33 37 27 18 
4 37 38 34 33 
4 39 40 12 9 
4 40 38 26 12 
4 39 37 27 9 
4 39 40 38 37 
4 16 21 41 34 
4 34 41 22 17 
4 3 8 35 42 
4 42 35 11 13 
4 3 21 41 42 
4 42 41 22 13 
4 41 34 35 42 
4 43 40 12 14 
4 25 30 44 38 
4 38 44 31 26 
4 43 44 31 14 
4 43 40 38 44 
4 21 30 44 41 
4 41 44 31 22 
4 44 38 34 41 

CELL_TYPES 68
9 
9 
9 
9 
9 
9 
9 
9 
9 
9 
9 
9 
9 
9 
9 
9 
9 
9 
9 
9 
9 
9 
9 
9 
9 
9 
9 
9 
9 
9 
9 
9 
9 
9 
9 
9 
9 
9 
9 
9 
9 
9 
9 
9 
9 
9 
9 
9 
9 
9 
9 
9 
9 
9 
9 
9 
9 
9 
9 
9 
9 
9 
9 
9 
9 
9 
9 
9 
POINT_DATA 45
SCALARS GMDS_ID int 1
LOOKUP_TABLE default
1 2 3 5 6 7 9 10 11 12 13 14 15 16 17 18 19 20 21 22 23 24 25 26 27 28 29 30 31 32 33 34 35 36 37 38 39 40 41 42 43 44 45 46 47 
SCALARS geom_link_dim int 1
LOOKUP_TABLE default
1 1 1 1 1 1 2 2 1 2 2 1 3 2 2 2 1 0 3 3 2 2 3 2 1 2 0 3 3 2 1 3 2 3 0 2 2 1 2 1 2 3 2 1 1 
SCALARS geom_link_id int 1
LOOKUP_TABLE default
7 13 18 2 9 10 10 13 6 8 16 15 4 24 9 12 5 0 2 6 11 17 1 14 8 27 0 2 6 11 1 1 14 2 0 15 16 20 1 19 23 1 24 11 12 


CELL_DATA 68
SCALARS GMDS_ID int 1
LOOKUP_TABLE default
0 1 3 4 5 6 8 10 11 14 15 16 18 21 23 25 29 30 31 32 33 34 35 36 37 38 39 40 43 44 45 46 47 48 49 50 51 53 54 55 59 60 61 62 63 64 65 66 67 69 71 73 74 75 76 77 78 79 80 81 83 84 85 87 88 89 90 91 

SCALARS geom_link_dim int 1
LOOKUP_TABLE default
0 0 0 0 0 0 0 0 0 0 0 0 0 0 0 0 0 0 0 0 0 0 0 0 0 0 0 0 0 0 0 0 0 0 0 0 0 0 0 0 0 0 0 0 0 0 0 0 0 0 0 0 0 0 0 0 0 0 0 0 0 0 0 0 0 0 0 0 

SCALARS geom_link_id int 1
LOOKUP_TABLE default
0 0 0 0 0 0 0 0 0 0 0 0 0 0 0 0 0 0 0 0 0 0 0 0 0 0 0 0 0 0 0 0 0 0 0 0 0 0 0 0 0 0 0 0 0 0 0 0 0 0 0 0 0 0 0 0 0 0 0 0 0 0 0 0 0 0 0 0 

