# vtk DataFile Version 3.0
Generated by GMDS VTK Writer

ASCII
DATASET UNSTRUCTURED_GRID
POINTS 60 float
3 8 9
0 10 0
10 10 0
10 0 0
3 10 9
0 10 10
10 10 10
10 0 10
10 8 9
10 0 7
10 10 7
0 10 7
3 0 0
3 10 0
3 10 7
3 0 7
3 10 10
3 0 10
0 8 0
0 8 7
3 8 7
3 8 0
10 8 7
10 8 0
0 8 10
3 8 10
10 8 10
0 1 0
0 1 7
3 1 7
3 1 0
10 1 7
10 1 0
0 1 10
3 1 10
10 1 10
1 8 0
1 8 7
1 10 7
1 10 0
1 1 0
1 1 7
1 0 0
1 0 7
1 8 10
1 10 10
1 0 10
1 1 10
10 10 9
10 0 9
3 0 9
3 1 9
10 1 9
0 10 9
0 8 9
1 8 9
1 10 9
1 0 9
1 1 9
0 1 9

CELLS 96 480
4 19 28 41 37 
4 13 14 10 2 
4 5 24 54 53 
4 3 9 31 32 
4 31 29 20 22 
4 21 20 14 13 
4 40 41 29 30 
4 52 51 0 8 
4 9 15 29 31 
4 8 52 31 22 
4 27 28 41 40 
4 18 19 11 1 
4 26 35 52 8 
4 0 51 29 20 
4 36 37 38 39 
4 30 29 20 21 
4 12 15 29 30 
4 25 34 51 0 
4 12 15 9 3 
4 49 50 51 52 
4 49 52 31 9 
4 7 35 52 49 
4 27 28 19 18 
4 51 52 31 29 
4 4 0 20 14 
4 34 35 52 51 
4 50 51 29 15 
4 39 36 21 13 
4 22 20 14 10 
4 1 18 36 39 
4 23 22 10 2 
4 39 38 14 13 
4 23 21 13 2 
4 21 20 22 23 
4 1 11 38 39 
4 38 37 20 14 
4 11 19 37 38 
4 17 34 51 50 
4 49 50 15 9 
4 36 37 20 21 
4 18 19 37 36 
4 26 25 16 6 
4 32 31 22 23 
4 3 12 30 32 
4 32 30 21 23 
4 30 29 31 32 
4 6 26 8 48 
4 7 17 50 49 
4 8 0 4 48 
4 48 8 22 10 
4 7 17 34 35 
4 35 34 25 26 
4 37 41 29 20 
4 18 27 40 36 
4 36 40 30 21 
4 40 41 37 36 
4 16 25 0 4 
4 42 43 15 12 
4 0 8 22 20 
4 43 41 29 15 
4 25 26 8 0 
4 42 40 30 12 
4 42 43 41 40 
4 5 24 44 45 
4 45 44 25 16 
4 48 4 14 10 
4 6 16 4 48 
4 46 47 34 17 
4 24 33 47 44 
4 44 47 34 25 
4 24 44 55 54 
4 54 55 37 19 
4 44 45 56 55 
4 55 56 38 37 
4 5 45 56 53 
4 53 54 55 56 
4 25 44 55 0 
4 0 55 37 20 
4 16 45 56 4 
4 4 56 38 14 
4 56 55 0 4 
4 46 47 58 57 
4 57 58 41 43 
4 34 47 58 51 
4 51 58 41 29 
4 17 46 57 50 
4 50 57 43 15 
4 57 58 51 50 
4 24 33 59 54 
4 54 59 28 19 
4 33 47 58 59 
4 59 58 41 28 
4 44 47 58 55 
4 55 58 41 37 
4 54 59 58 55 
4 55 58 51 0 

CELL_TYPES 96
9 
9 
9 
9 
9 
9 
9 
9 
9 
9 
9 
9 
9 
9 
9 
9 
9 
9 
9 
9 
9 
9 
9 
9 
9 
9 
9 
9 
9 
9 
9 
9 
9 
9 
9 
9 
9 
9 
9 
9 
9 
9 
9 
9 
9 
9 
9 
9 
9 
9 
9 
9 
9 
9 
9 
9 
9 
9 
9 
9 
9 
9 
9 
9 
9 
9 
9 
9 
9 
9 
9 
9 
9 
9 
9 
9 
9 
9 
9 
9 
9 
9 
9 
9 
9 
9 
9 
9 
9 
9 
9 
9 
9 
9 
9 
9 
POINT_DATA 60
SCALARS GMDS_ID int 1
LOOKUP_TABLE default
0 1 2 3 4 5 6 7 8 9 10 11 12 13 14 15 16 17 18 19 20 21 22 23 24 25 26 27 28 29 30 31 32 33 34 35 36 37 38 39 40 41 42 43 44 45 46 47 48 49 50 51 52 53 54 55 56 57 58 59 
SCALARS geom_link_dim int 1
LOOKUP_TABLE default
0 1 1 1 1 1 1 1 3 2 2 1 2 2 1 3 2 2 2 1 0 3 3 2 2 3 2 1 2 0 3 3 2 1 3 2 3 2 2 2 1 2 1 2 3 2 1 1 2 2 3 0 3 1 1 2 2 2 2 2 
SCALARS geom_link_id int 1
LOOKUP_TABLE default
0 7 13 18 14 2 9 10 6 10 13 6 8 16 15 4 24 9 12 5 0 2 6 11 17 1 14 8 27 0 2 6 11 1 1 14 2 5 15 16 20 1 19 23 1 24 11 12 13 10 4 0 6 3 4 2 25 23 1 27 


CELL_DATA 96
SCALARS GMDS_ID int 1
LOOKUP_TABLE default
0 1 2 3 4 5 6 7 8 9 10 11 12 13 14 15 16 17 18 19 20 22 23 24 26 27 28 29 30 31 32 33 34 35 36 38 40 41 42 43 45 46 48 49 50 51 52 56 57 58 61 62 64 65 66 67 68 69 70 71 72 73 74 79 80 82 86 87 89 90 93 94 95 96 97 99 100 101 102 103 104 105 106 107 108 109 110 111 112 113 114 115 116 117 118 119 

SCALARS geom_link_dim int 1
LOOKUP_TABLE default
0 0 0 0 0 0 0 0 0 0 0 0 0 0 0 0 0 0 0 0 0 0 0 0 0 0 0 0 0 0 0 0 0 0 0 0 0 0 0 0 0 0 0 0 0 0 0 0 0 0 0 0 0 0 0 0 0 0 0 0 0 0 0 0 0 0 0 0 0 0 0 0 0 0 0 0 0 0 0 0 0 0 0 0 0 0 0 0 0 0 0 0 0 0 0 0 

SCALARS geom_link_id int 1
LOOKUP_TABLE default
0 0 0 0 0 0 0 0 0 0 0 0 0 0 0 0 0 0 0 0 0 0 0 0 0 0 0 0 0 0 0 0 0 0 0 0 0 0 0 0 0 0 0 0 0 0 0 0 0 0 0 0 0 0 0 0 0 0 0 0 0 0 0 0 0 0 0 0 0 0 0 0 0 0 0 0 0 0 0 0 0 0 0 0 0 0 0 0 0 0 0 0 0 0 0 0 

