# vtk DataFile Version 3.0
Generated by GMDS VTK Writer

ASCII
DATASET UNSTRUCTURED_GRID
POINTS 36 float
0 0 0
0 10 0
10 10 0
10 0 0
0 0 10
0 10 10
10 10 10
10 0 10
0 0 7
10 0 7
10 10 7
0 10 7
3 0 0
3 10 0
3 10 7
3 0 7
3 10 10
3 0 10
0 8 0
0 8 7
3 8 7
3 8 0
10 8 7
10 8 0
0 8 10
3 8 10
10 8 10
0 1 0
0 1 7
3 1 7
3 1 0
10 1 7
10 1 0
0 1 10
3 1 10
10 1 10

CELLS 52 260
4 13 14 10 2 
4 1 11 14 13 
4 3 9 31 32 
4 31 29 20 22 
4 21 20 14 13 
4 19 20 14 11 
4 9 15 29 31 
4 27 28 29 30 
4 18 19 11 1 
4 27 30 21 18 
4 0 12 30 27 
4 30 29 20 21 
4 12 15 29 30 
4 0 8 15 12 
4 12 15 9 3 
4 28 29 20 19 
4 5 11 14 16 
4 16 14 10 6 
4 8 15 29 28 
4 27 28 19 18 
4 4 8 15 17 
4 17 15 9 7 
4 0 8 28 27 
4 18 21 13 1 
4 18 19 20 21 
4 22 20 14 10 
4 23 22 10 2 
4 23 21 13 2 
4 21 20 22 23 
4 24 19 11 5 
4 20 25 16 14 
4 24 25 16 5 
4 24 19 20 25 
4 26 22 10 6 
4 26 25 16 6 
4 25 20 22 26 
4 32 31 22 23 
4 3 12 30 32 
4 32 30 21 23 
4 30 29 31 32 
4 4 8 28 33 
4 33 28 19 24 
4 15 17 34 29 
4 29 34 25 20 
4 4 17 34 33 
4 33 34 25 24 
4 33 28 29 34 
4 7 9 31 35 
4 35 31 22 26 
4 7 17 34 35 
4 35 34 25 26 
4 34 29 31 35 

CELL_TYPES 52
9 
9 
9 
9 
9 
9 
9 
9 
9 
9 
9 
9 
9 
9 
9 
9 
9 
9 
9 
9 
9 
9 
9 
9 
9 
9 
9 
9 
9 
9 
9 
9 
9 
9 
9 
9 
9 
9 
9 
9 
9 
9 
9 
9 
9 
9 
9 
9 
9 
9 
9 
9 
POINT_DATA 36
SCALARS GMDS_ID int 1
LOOKUP_TABLE default
0 1 2 3 4 5 6 7 8 9 10 11 12 13 14 15 16 17 18 19 20 21 22 23 24 25 26 27 28 29 30 31 32 33 34 35 
SCALARS geom_link_dim int 1
LOOKUP_TABLE default
0 1 1 1 0 1 1 1 0 2 2 1 2 2 1 3 2 2 2 1 0 3 3 2 2 3 2 1 2 0 3 3 2 1 3 2 
SCALARS geom_link_id int 1
LOOKUP_TABLE default
-1 7 13 18 -1 2 9 10 -1 10 13 6 8 16 15 4 24 9 12 5 0 2 6 11 17 1 14 8 27 -1 2 6 11 1 1 14 


CELL_DATA 52
SCALARS GMDS_ID int 1
LOOKUP_TABLE default
1 2 3 4 5 7 8 9 11 12 13 15 16 17 18 19 20 21 22 23 24 25 26 27 28 30 32 34 35 37 39 41 42 44 46 47 48 49 50 51 52 53 54 55 56 57 58 59 60 61 62 63 

SCALARS geom_link_dim int 1
LOOKUP_TABLE default
0 0 0 0 0 0 0 0 0 0 0 0 0 0 0 0 0 0 0 0 0 0 0 0 0 0 0 0 0 0 0 0 0 0 0 0 0 0 0 0 0 0 0 0 0 0 0 0 0 0 0 0 

SCALARS geom_link_id int 1
LOOKUP_TABLE default
0 0 -1 -1 0 0 -1 -1 0 -1 -1 -1 -1 0 0 -1 0 0 -1 -1 0 0 -1 0 0 0 0 0 0 0 0 0 0 0 0 0 -1 -1 -1 -1 -1 -1 -1 -1 -1 -1 -1 -1 -1 -1 -1 -1 

