# vtk DataFile Version 3.0
Generated by GMDS VTK Writer

ASCII
DATASET UNSTRUCTURED_GRID
POINTS 60 float
0 10 0
10 10 0
10 0 0
0 10 10
10 10 10
10 0 10
10 0 9
10 10 9
0 10 9
10 0 7
10 10 7
0 10 7
0 1 7
10 1 7
10 1 9
0 1 9
0 1 0
10 1 0
10 1 10
0 1 10
3 0 9
3 0 7
3 1 7
3 1 9
3 10 7
3 10 9
3 0 0
3 1 0
3 10 0
3 0 10
3 1 10
3 10 10
3 8 7
3 8 9
10 8 9
10 8 7
0 8 7
0 8 9
0 8 0
3 8 0
10 8 0
0 8 10
3 8 10
10 8 10
1 1 7
1 1 0
1 8 0
1 8 7
1 8 9
1 10 9
1 10 7
1 1 9
1 0 9
1 0 7
1 0 0
1 0 10
1 1 10
1 10 0
1 8 10
1 10 10

CELLS 94 470
4 50 47 32 24 
4 20 21 22 23 
4 20 23 14 6 
4 12 16 38 36 
4 11 36 47 50 
4 6 9 13 14 
4 22 23 14 13 
4 21 22 13 9 
4 12 15 37 36 
4 20 21 9 6 
4 32 33 34 35 
4 35 32 24 10 
4 13 22 32 35 
4 35 34 7 10 
4 13 14 34 35 
4 2 9 13 17 
4 49 48 33 25 
4 34 33 25 7 
4 5 6 14 18 
4 8 37 48 49 
4 14 23 33 34 
4 32 33 25 24 
4 47 48 33 32 
4 22 23 33 32 
4 36 37 48 47 
4 25 24 10 7 
4 44 45 46 47 
4 44 47 32 22 
4 12 36 47 44 
4 26 21 9 2 
4 22 27 17 13 
4 26 27 17 2 
4 26 21 22 27 
4 28 24 10 1 
4 47 46 39 32 
4 36 38 46 47 
4 45 46 39 27 
4 29 20 6 5 
4 23 30 18 14 
4 29 30 18 5 
4 29 20 23 30 
4 31 25 7 4 
4 16 38 46 45 
4 44 45 27 22 
4 12 16 45 44 
4 36 38 0 11 
4 22 27 39 32 
4 32 39 28 24 
4 17 27 39 40 
4 40 39 28 1 
4 13 17 40 35 
4 35 40 1 10 
4 32 39 40 35 
4 15 19 41 37 
4 37 41 3 8 
4 23 30 42 33 
4 33 42 31 25 
4 18 30 42 43 
4 43 42 31 4 
4 14 18 43 34 
4 34 43 4 7 
4 33 42 43 34 
4 12 15 51 44 
4 44 51 23 22 
4 15 37 48 51 
4 51 48 33 23 
4 44 51 48 47 
4 52 53 21 20 
4 53 44 22 21 
4 52 51 23 20 
4 52 53 44 51 
4 54 53 21 26 
4 54 45 27 26 
4 54 53 44 45 
4 55 52 20 29 
4 15 19 56 51 
4 51 56 30 23 
4 55 56 30 29 
4 55 52 51 56 
4 0 38 46 57 
4 57 46 39 28 
4 0 11 50 57 
4 57 50 24 28 
4 47 46 57 50 
4 19 41 58 56 
4 56 58 42 30 
4 37 41 58 48 
4 48 58 42 33 
4 51 56 58 48 
4 3 41 58 59 
4 59 58 42 31 
4 3 8 49 59 
4 59 49 25 31 
4 48 58 59 49 

CELL_TYPES 94
9 
9 
9 
9 
9 
9 
9 
9 
9 
9 
9 
9 
9 
9 
9 
9 
9 
9 
9 
9 
9 
9 
9 
9 
9 
9 
9 
9 
9 
9 
9 
9 
9 
9 
9 
9 
9 
9 
9 
9 
9 
9 
9 
9 
9 
9 
9 
9 
9 
9 
9 
9 
9 
9 
9 
9 
9 
9 
9 
9 
9 
9 
9 
9 
9 
9 
9 
9 
9 
9 
9 
9 
9 
9 
9 
9 
9 
9 
9 
9 
9 
9 
9 
9 
9 
9 
9 
9 
9 
9 
9 
9 
9 
9 
POINT_DATA 60
SCALARS GMDS_ID int 1
LOOKUP_TABLE default
1 2 3 5 6 7 9 10 11 13 14 15 16 17 18 19 20 21 22 23 24 25 26 27 28 29 30 31 32 33 34 35 36 37 38 39 40 41 42 43 44 45 46 47 48 49 50 51 52 53 54 55 56 57 58 59 60 61 62 63 
SCALARS geom_link_dim int 1
LOOKUP_TABLE default
1 1 1 1 1 1 2 2 1 2 2 1 2 3 3 2 1 2 2 1 3 3 3 3 1 1 2 3 2 2 3 2 1 1 3 3 1 1 2 3 2 2 3 2 2 1 3 2 2 2 2 2 2 2 1 1 1 2 3 2 
SCALARS geom_link_id int 1
LOOKUP_TABLE default
7 13 18 2 9 10 10 13 3 10 13 6 27 6 6 27 8 11 14 1 4 4 12 1 15 14 8 2 16 9 1 24 17 16 6 6 5 4 12 2 11 17 1 14 1 20 2 5 2 25 15 1 23 23 19 11 12 16 1 24 


CELL_DATA 94
SCALARS GMDS_ID int 1
LOOKUP_TABLE default
0 1 2 3 6 8 9 14 16 18 20 21 24 25 26 27 30 31 32 33 34 35 37 38 39 41 42 43 44 46 48 50 51 53 54 55 56 58 60 62 63 65 66 67 68 69 72 73 75 76 77 78 79 80 81 84 85 87 88 89 90 91 93 94 95 96 97 99 101 103 104 106 108 109 111 112 113 115 116 117 118 119 120 121 122 123 124 125 126 127 128 129 130 131 

SCALARS geom_link_dim int 1
LOOKUP_TABLE default
3 4 3 3 3 3 4 4 3 3 4 3 4 3 3 3 3 4 3 3 4 3 3 4 3 3 3 4 3 3 4 3 4 3 4 4 3 3 3 3 4 3 3 4 3 3 4 4 3 3 3 3 4 3 3 4 4 3 3 3 3 4 3 4 4 4 4 3 3 4 3 3 3 3 3 3 4 3 3 3 3 3 3 4 3 3 4 4 4 3 3 3 3 4 

SCALARS geom_link_id int 1
LOOKUP_TABLE default
8 1 4 3 8 6 1 1 3 4 1 5 1 6 6 6 7 1 6 7 1 11 9 1 9 5 2 1 10 4 1 2 1 5 1 1 2 4 1 1 1 5 2 1 10 3 1 1 2 2 6 6 1 3 3 1 1 1 1 6 6 1 10 1 1 1 1 4 12 1 12 4 2 12 4 10 1 1 12 2 2 5 5 1 1 1 1 1 1 1 1 5 5 1 

