# vtk DataFile Version 3.0
Generated by GMDS VTK Writer

ASCII
DATASET UNSTRUCTURED_GRID
POINTS 47 float
0 0 0
0 10 0
10 10 0
10 0 0
0 10 10
10 10 10
10 0 10
0 0 7
10 0 7
10 10 7
0 10 7
3 0 0
3 10 0
3 10 7
3 0 7
3 10 10
3 0 10
0 8 0
0 8 7
3 8 7
3 8 0
10 8 7
10 8 0
0 8 10
3 8 10
10 8 10
0 1 0
0 1 7
3 1 7
3 1 0
10 1 7
10 1 0
0 1 10
3 1 10
10 1 10
1 8 0
1 8 7
1 10 7
1 10 0
1 1 0
1 1 7
1 0 0
1 0 7
1 8 10
1 10 10
1 0 10
1 1 10

CELLS 72 360
4 18 27 40 36 
4 12 13 9 2 
4 3 8 30 31 
4 30 28 19 21 
4 20 19 13 12 
4 39 40 28 29 
4 8 14 28 30 
4 26 27 40 39 
4 17 18 10 1 
4 35 36 37 38 
4 29 28 19 20 
4 11 14 28 29 
4 11 14 8 3 
4 15 13 9 5 
4 26 27 18 17 
4 16 14 8 6 
4 0 7 27 26 
4 38 35 20 12 
4 21 19 13 9 
4 1 17 35 38 
4 22 21 9 2 
4 38 37 13 12 
4 22 20 12 2 
4 20 19 21 22 
4 1 10 37 38 
4 23 18 10 4 
4 37 36 19 13 
4 19 24 15 13 
4 10 18 36 37 
4 35 36 19 20 
4 25 21 9 5 
4 17 18 36 35 
4 25 24 15 5 
4 24 19 21 25 
4 31 30 21 22 
4 3 11 29 31 
4 31 29 20 22 
4 29 28 30 31 
4 32 27 18 23 
4 14 16 33 28 
4 28 33 24 19 
4 6 8 30 34 
4 34 30 21 25 
4 6 16 33 34 
4 34 33 24 25 
4 33 28 30 34 
4 36 40 28 19 
4 17 26 39 35 
4 35 39 29 20 
4 39 40 36 35 
4 0 7 42 41 
4 41 42 14 11 
4 7 27 40 42 
4 42 40 28 14 
4 0 26 39 41 
4 41 39 29 11 
4 41 42 40 39 
4 18 23 43 36 
4 36 43 24 19 
4 4 10 37 44 
4 44 37 13 15 
4 4 23 43 44 
4 44 43 24 15 
4 43 36 37 44 
4 45 42 14 16 
4 27 32 46 40 
4 40 46 33 28 
4 45 46 33 16 
4 45 42 40 46 
4 23 32 46 43 
4 43 46 33 24 
4 46 40 36 43 

CELL_TYPES 72
9 
9 
9 
9 
9 
9 
9 
9 
9 
9 
9 
9 
9 
9 
9 
9 
9 
9 
9 
9 
9 
9 
9 
9 
9 
9 
9 
9 
9 
9 
9 
9 
9 
9 
9 
9 
9 
9 
9 
9 
9 
9 
9 
9 
9 
9 
9 
9 
9 
9 
9 
9 
9 
9 
9 
9 
9 
9 
9 
9 
9 
9 
9 
9 
9 
9 
9 
9 
9 
9 
9 
9 
POINT_DATA 47
SCALARS GMDS_ID int 1
LOOKUP_TABLE default
0 1 2 3 5 6 7 8 9 10 11 12 13 14 15 16 17 18 19 20 21 22 23 24 25 26 27 28 29 30 31 32 33 34 35 36 37 38 39 40 41 42 43 44 45 46 47 
SCALARS geom_link_dim int 1
LOOKUP_TABLE default
0 1 1 1 1 1 1 0 2 2 1 2 2 1 3 2 2 2 1 0 3 3 2 2 3 2 1 2 0 3 3 2 1 3 2 3 0 2 2 1 2 1 2 3 2 1 1 
SCALARS geom_link_id int 1
LOOKUP_TABLE default
-1 7 13 18 2 9 10 -1 10 13 6 8 16 15 4 24 9 12 5 0 2 6 11 17 1 14 8 27 0 2 6 11 1 1 14 2 0 15 16 20 1 19 23 1 24 11 12 


CELL_DATA 72
SCALARS GMDS_ID int 1
LOOKUP_TABLE default
0 1 3 4 5 6 8 10 11 14 15 16 18 21 23 25 26 29 30 31 32 33 34 35 36 37 38 39 40 43 44 45 46 47 48 49 50 51 53 54 55 59 60 61 62 63 64 65 66 67 68 69 70 71 72 73 74 75 76 77 78 79 80 81 83 84 85 87 88 89 90 91 

SCALARS geom_link_dim int 1
LOOKUP_TABLE default
0 0 0 0 0 0 0 0 0 0 0 0 0 0 0 0 0 0 0 0 0 0 0 0 0 0 0 0 0 0 0 0 0 0 0 0 0 0 0 0 0 0 0 0 0 0 0 0 0 0 0 0 0 0 0 0 0 0 0 0 0 0 0 0 0 0 0 0 0 0 0 0 

SCALARS geom_link_id int 1
LOOKUP_TABLE default
0 0 0 0 0 0 0 0 0 0 0 0 0 0 0 0 0 0 0 0 0 0 0 0 0 0 0 0 0 0 0 0 0 0 0 0 0 0 0 0 0 0 0 0 0 0 0 0 0 0 0 0 0 0 0 0 0 0 0 0 0 0 0 0 0 0 0 0 0 0 0 0 

