# vtk DataFile Version 3.0
Generated by GMDS VTK Writer

ASCII
DATASET UNSTRUCTURED_GRID
POINTS 63 float
0 10 0
10 10 0
10 0 0
0 0 10
0 10 10
10 10 10
10 0 10
3 0 0
3 10 0
3 10 10
3 0 10
0 1 0
0 1 10
3 1 10
3 1 0
10 1 10
10 1 0
0 0 9
3 0 9
3 1 9
0 1 9
3 10 9
0 10 9
10 0 9
10 1 9
10 10 9
0 8 0
3 8 0
3 8 9
0 8 9
3 8 10
0 8 10
10 8 0
10 8 9
10 8 10
0 0 7
3 0 7
3 1 7
0 1 7
0 8 7
3 8 7
10 0 7
10 1 7
0 10 7
3 10 7
10 10 7
10 8 7
1 0 9
1 1 9
1 1 10
1 0 10
1 0 7
1 1 7
1 0 0
1 1 0
1 10 10
1 10 9
1 8 9
1 8 10
1 8 0
1 8 7
1 10 0
1 10 7

CELLS 105 525
4 14 27 40 37 
4 30 28 19 13 
4 51 52 48 47 
4 18 19 13 10 
4 9 21 28 30 
4 47 51 36 18 
4 17 35 51 47 
4 48 52 37 19 
4 20 38 52 48 
4 51 52 37 36 
4 35 38 52 51 
4 6 10 13 15 
4 47 48 49 50 
4 2 7 14 16 
4 17 20 12 3 
4 35 38 20 17 
4 50 47 18 10 
4 36 37 19 18 
4 3 17 47 50 
4 23 18 10 6 
4 50 49 13 10 
4 19 24 15 13 
4 3 12 49 50 
4 23 24 15 6 
4 23 18 19 24 
4 49 48 19 13 
4 25 21 9 5 
4 7 14 37 36 
4 4 22 29 31 
4 31 29 20 12 
4 1 8 27 32 
4 32 27 14 16 
4 21 25 33 28 
4 28 33 24 19 
4 12 20 48 49 
4 47 48 19 18 
4 17 20 48 47 
4 5 9 30 34 
4 34 30 13 15 
4 5 25 33 34 
4 34 33 24 15 
4 33 28 30 34 
4 37 40 28 19 
4 11 26 39 38 
4 38 39 29 20 
4 2 7 36 41 
4 41 36 18 23 
4 14 16 42 37 
4 37 42 24 19 
4 2 16 42 41 
4 41 42 24 23 
4 41 36 37 42 
4 8 27 40 44 
4 44 40 28 21 
4 0 26 39 43 
4 43 39 29 22 
4 1 8 44 45 
4 45 44 21 25 
4 27 32 46 40 
4 40 46 33 28 
4 1 32 46 45 
4 45 46 33 25 
4 45 44 40 46 
4 16 32 46 42 
4 42 46 33 24 
4 46 40 37 42 
4 53 54 14 7 
4 11 38 52 54 
4 54 52 37 14 
4 53 51 36 7 
4 53 54 52 51 
4 4 22 56 55 
4 55 56 21 9 
4 22 29 57 56 
4 56 57 28 21 
4 29 31 58 57 
4 57 58 30 28 
4 4 31 58 55 
4 55 58 30 9 
4 55 56 57 58 
4 20 29 57 48 
4 48 57 28 19 
4 12 31 58 49 
4 49 58 30 13 
4 58 57 48 49 
4 11 26 59 54 
4 54 59 27 14 
4 26 39 60 59 
4 59 60 40 27 
4 38 39 60 52 
4 52 60 40 37 
4 54 59 60 52 
4 29 39 60 57 
4 57 60 40 28 
4 52 60 57 48 
4 0 26 59 61 
4 61 59 27 8 
4 39 43 62 60 
4 60 62 44 40 
4 0 43 62 61 
4 61 62 44 8 
4 61 59 60 62 
4 22 43 62 56 
4 56 62 44 21 
4 62 60 57 56 

CELL_TYPES 105
9 
9 
9 
9 
9 
9 
9 
9 
9 
9 
9 
9 
9 
9 
9 
9 
9 
9 
9 
9 
9 
9 
9 
9 
9 
9 
9 
9 
9 
9 
9 
9 
9 
9 
9 
9 
9 
9 
9 
9 
9 
9 
9 
9 
9 
9 
9 
9 
9 
9 
9 
9 
9 
9 
9 
9 
9 
9 
9 
9 
9 
9 
9 
9 
9 
9 
9 
9 
9 
9 
9 
9 
9 
9 
9 
9 
9 
9 
9 
9 
9 
9 
9 
9 
9 
9 
9 
9 
9 
9 
9 
9 
9 
9 
9 
9 
9 
9 
9 
9 
9 
9 
9 
9 
9 
POINT_DATA 63
SCALARS GMDS_ID int 1
LOOKUP_TABLE default
1 2 3 4 5 6 7 8 9 10 11 12 13 14 15 16 17 18 19 20 21 22 23 24 25 26 27 28 29 30 31 32 33 34 35 36 37 38 39 40 41 42 43 44 45 46 47 48 49 50 51 52 53 54 55 56 57 58 59 60 61 62 63 
SCALARS geom_link_dim int 1
LOOKUP_TABLE default
1 1 1 0 1 1 1 2 2 2 2 1 1 3 3 2 2 0 3 0 2 1 1 2 3 2 2 3 0 1 3 2 2 3 2 0 3 0 2 1 0 2 3 1 1 2 3 2 0 1 1 2 2 1 1 2 2 0 3 3 0 2 2 
SCALARS geom_link_id int 1
LOOKUP_TABLE default
7 13 18 -1 2 9 10 8 16 24 9 8 1 1 2 14 11 -1 4 0 27 14 3 10 6 13 12 2 0 4 1 17 11 6 14 -1 4 0 27 5 0 10 6 6 15 13 6 23 0 12 11 23 1 19 20 24 25 0 1 2 0 16 15 


CELL_DATA 105
SCALARS GMDS_ID int 1
LOOKUP_TABLE default
0 5 6 7 8 9 10 12 13 14 19 20 22 24 27 29 31 35 36 37 38 39 40 41 42 43 44 45 49 50 52 53 54 55 56 57 58 59 60 61 62 63 64 65 66 68 69 70 71 72 73 74 77 78 79 80 82 83 84 85 86 87 88 89 90 91 92 93 94 96 97 98 99 100 101 102 103 104 105 106 107 108 109 110 111 112 113 114 115 116 117 118 119 120 121 122 123 124 125 126 127 128 129 130 131 

SCALARS geom_link_dim int 1
LOOKUP_TABLE default
0 0 0 0 0 0 0 0 0 0 0 0 0 0 0 0 0 0 0 0 0 0 0 0 0 0 0 0 0 0 0 0 0 0 0 0 0 0 0 0 0 0 0 0 0 0 0 0 0 0 0 0 0 0 0 0 0 0 0 0 0 0 0 0 0 0 0 0 0 0 0 0 0 0 0 0 0 0 0 0 0 0 0 0 0 0 0 0 0 0 0 0 0 0 0 0 0 0 0 0 0 0 0 0 0 

SCALARS geom_link_id int 1
LOOKUP_TABLE default
0 0 0 0 0 0 0 0 0 0 0 0 0 0 0 0 0 0 0 0 0 0 0 0 0 0 0 0 0 0 0 0 0 0 0 0 0 0 0 0 0 0 0 0 0 0 0 0 0 0 0 0 0 0 0 0 0 0 0 0 0 0 0 0 0 0 0 0 0 0 0 0 0 0 0 0 0 0 0 0 0 0 0 0 0 0 0 0 0 0 0 0 0 0 0 0 0 0 0 0 0 0 0 0 0 

