# vtk DataFile Version 3.0
Generated by GMDS VTK Writer

ASCII
DATASET UNSTRUCTURED_GRID
POINTS 48 float
0 0 0
0 10 0
10 10 0
10 0 0
0 0 10
0 10 10
10 10 10
10 0 10
0 1 0
0 1 10
10 1 10
10 1 0
0 0 7
10 0 7
10 1 7
0 1 7
10 10 7
0 10 7
0 8 0
10 8 0
10 8 7
0 8 7
10 8 10
0 8 10
0 0 9
10 0 9
10 1 9
0 1 9
0 10 9
10 10 9
10 8 9
0 8 9
1 0 0
1 1 0
1 1 7
1 0 7
1 8 0
1 8 7
1 10 0
1 10 7
1 0 9
1 1 9
1 0 10
1 1 10
1 10 10
1 8 10
1 8 9
1 10 9

CELLS 75 375
4 19 20 37 36 
4 3 11 14 13 
4 1 17 21 18 
4 32 33 34 35 
4 19 20 14 11 
4 4 9 27 24 
4 2 16 20 19 
4 32 35 12 0 
4 0 8 15 12 
4 3 13 35 32 
4 25 26 14 13 
4 35 34 15 12 
4 7 10 26 25 
4 18 21 15 8 
4 13 14 34 35 
4 33 34 15 8 
4 11 14 34 33 
4 32 33 8 0 
4 3 11 33 32 
4 24 27 15 12 
4 6 22 30 29 
4 29 30 20 16 
4 5 23 31 28 
4 28 31 21 17 
4 10 22 30 26 
4 26 30 20 14 
4 9 23 31 27 
4 27 31 21 15 
4 36 37 21 18 
4 14 20 37 34 
4 34 37 21 15 
4 11 19 36 33 
4 33 36 18 8 
4 36 37 34 33 
4 2 16 39 38 
4 38 39 17 1 
4 16 20 37 39 
4 39 37 21 17 
4 2 19 36 38 
4 38 36 18 1 
4 38 39 37 36 
4 25 26 41 40 
4 40 41 27 24 
4 14 26 41 34 
4 34 41 27 15 
4 13 25 40 35 
4 35 40 24 12 
4 40 41 34 35 
4 7 10 43 42 
4 42 43 9 4 
4 10 26 41 43 
4 43 41 27 9 
4 7 25 40 42 
4 42 40 24 4 
4 42 43 41 40 
4 6 22 45 44 
4 44 45 23 5 
4 22 30 46 45 
4 45 46 31 23 
4 29 30 46 47 
4 47 46 31 28 
4 6 29 47 44 
4 44 47 28 5 
4 44 45 46 47 
4 20 30 46 37 
4 37 46 31 21 
4 16 29 47 39 
4 39 47 28 17 
4 47 46 37 39 
4 10 22 45 43 
4 43 45 23 9 
4 26 30 46 41 
4 41 46 31 27 
4 43 45 46 41 
4 41 46 37 34 

CELL_TYPES 75
9 
9 
9 
9 
9 
9 
9 
9 
9 
9 
9 
9 
9 
9 
9 
9 
9 
9 
9 
9 
9 
9 
9 
9 
9 
9 
9 
9 
9 
9 
9 
9 
9 
9 
9 
9 
9 
9 
9 
9 
9 
9 
9 
9 
9 
9 
9 
9 
9 
9 
9 
9 
9 
9 
9 
9 
9 
9 
9 
9 
9 
9 
9 
9 
9 
9 
9 
9 
9 
9 
9 
9 
9 
9 
9 
POINT_DATA 48
SCALARS GMDS_ID int 1
LOOKUP_TABLE default
0 1 2 3 4 5 6 7 8 9 10 11 12 13 14 15 16 17 18 19 20 21 22 23 24 25 26 27 28 29 30 31 32 33 34 35 36 37 38 39 40 41 42 43 44 45 46 47 
SCALARS geom_link_dim int 1
LOOKUP_TABLE default
0 1 1 1 0 1 1 1 1 1 2 2 0 2 3 2 2 1 2 2 3 1 2 2 0 2 3 2 1 2 3 1 1 1 0 2 3 0 2 2 2 0 1 1 2 3 0 2 
SCALARS geom_link_id int 1
LOOKUP_TABLE default
-1 7 13 18 -1 2 9 10 8 1 14 11 -1 10 6 27 13 6 12 11 6 5 14 17 -1 10 6 27 3 13 6 4 19 20 -1 23 2 -1 16 15 23 -1 11 12 24 1 -1 25 


CELL_DATA 75
SCALARS GMDS_ID int 1
LOOKUP_TABLE default
0 1 2 3 7 9 10 16 17 18 21 23 24 27 29 30 33 34 35 36 40 41 44 45 47 48 49 50 52 53 54 55 56 57 58 59 60 61 62 63 64 65 66 67 68 69 70 71 72 73 74 75 76 77 78 79 80 81 82 83 84 85 86 87 88 89 90 91 92 93 94 95 96 97 98 

SCALARS geom_link_dim int 1
LOOKUP_TABLE default
0 0 0 0 0 0 0 0 0 0 0 0 0 0 0 0 0 0 0 0 0 0 0 0 0 0 0 0 0 0 0 0 0 0 0 0 0 0 0 0 0 0 0 0 0 0 0 0 0 0 0 0 0 0 0 0 0 0 0 0 0 0 0 0 0 0 0 0 0 0 0 0 0 0 0 

SCALARS geom_link_id int 1
LOOKUP_TABLE default
-1 0 0 -1 0 0 0 -1 0 -1 0 -1 0 0 -1 -1 -1 -1 -1 0 0 0 0 0 0 0 0 0 -1 -1 -1 -1 -1 -1 -1 -1 -1 -1 -1 -1 -1 -1 -1 -1 -1 -1 -1 -1 -1 -1 -1 -1 -1 -1 -1 -1 -1 -1 -1 -1 -1 -1 -1 -1 -1 -1 -1 -1 -1 -1 -1 -1 -1 -1 -1 

