# vtk DataFile Version 3.0
Generated by GMDS VTK Writer

ASCII
DATASET UNSTRUCTURED_GRID
POINTS 35 float
0 10 0
10 10 0
10 0 0
0 0 10
0 10 10
10 10 10
10 0 10
0 1 0
0 1 10
10 1 10
10 1 0
0 8 0
0 8 10
10 8 10
10 8 0
0 0 7
10 0 7
10 1 7
0 1 7
10 8 7
0 8 7
10 10 7
0 10 7
1 0 7
1 1 7
1 1 10
1 0 10
1 0 0
1 1 0
1 8 0
1 8 7
1 8 10
1 10 0
1 10 7
1 10 10

CELLS 49 245
4 2 10 28 27 
4 23 24 25 26 
4 26 23 15 3 
4 6 16 23 26 
4 26 25 8 3 
4 16 17 9 6 
4 2 10 17 16 
4 6 9 25 26 
4 25 24 18 8 
4 9 17 24 25 
4 23 24 18 15 
4 16 17 24 23 
4 15 18 8 3 
4 10 14 19 17 
4 17 19 13 9 
4 7 11 20 18 
4 18 20 12 8 
4 1 14 19 21 
4 21 19 13 5 
4 0 11 20 22 
4 22 20 12 4 
4 10 17 24 28 
4 28 24 18 7 
4 2 16 23 27 
4 27 28 24 23 
4 10 14 29 28 
4 28 29 11 7 
4 14 19 30 29 
4 29 30 20 11 
4 17 19 30 24 
4 24 30 20 18 
4 28 29 30 24 
4 13 19 30 31 
4 31 30 20 12 
4 9 13 31 25 
4 25 31 12 8 
4 24 30 31 25 
4 1 14 29 32 
4 32 29 11 0 
4 19 21 33 30 
4 30 33 22 20 
4 1 21 33 32 
4 32 33 22 0 
4 32 29 30 33 
4 5 13 31 34 
4 34 31 12 4 
4 5 21 33 34 
4 34 33 22 4 
4 33 30 31 34 

CELL_TYPES 49
9 
9 
9 
9 
9 
9 
9 
9 
9 
9 
9 
9 
9 
9 
9 
9 
9 
9 
9 
9 
9 
9 
9 
9 
9 
9 
9 
9 
9 
9 
9 
9 
9 
9 
9 
9 
9 
9 
9 
9 
9 
9 
9 
9 
9 
9 
9 
9 
9 
POINT_DATA 35
SCALARS GMDS_ID int 1
LOOKUP_TABLE default
1 2 3 4 5 6 7 8 9 10 11 12 13 14 15 16 17 18 19 20 21 22 23 24 25 26 27 28 29 30 31 32 33 34 35 
SCALARS geom_link_dim int 1
LOOKUP_TABLE default
1 1 1 0 1 1 1 1 1 2 2 2 2 2 2 0 2 3 2 3 1 2 1 2 2 1 1 1 1 3 0 3 2 2 2 
SCALARS geom_link_id int 1
LOOKUP_TABLE default
7 13 18 -1 2 9 10 8 1 14 11 12 17 14 11 -1 10 6 27 6 5 13 6 23 1 12 11 19 20 2 0 1 16 15 24 


CELL_DATA 49
SCALARS GMDS_ID int 1
LOOKUP_TABLE default
2 3 4 5 6 7 9 10 14 15 16 19 23 25 26 29 30 32 33 36 37 40 41 42 44 45 46 47 48 49 50 51 52 53 54 55 56 57 58 59 60 61 62 63 64 65 66 67 68 

SCALARS geom_link_dim int 1
LOOKUP_TABLE default
0 0 0 0 0 0 0 0 0 0 0 0 0 0 0 0 0 0 0 0 0 0 0 0 0 0 0 0 0 0 0 0 0 0 0 0 0 0 0 0 0 0 0 0 0 0 0 0 0 

SCALARS geom_link_id int 1
LOOKUP_TABLE default
0 0 0 0 0 0 0 0 0 0 0 0 0 0 0 0 0 0 0 0 0 0 0 0 0 0 0 0 0 0 0 0 0 0 0 0 0 0 0 0 0 0 0 0 0 0 0 0 0 

