# vtk DataFile Version 3.0
Generated by GMDS VTK Writer

ASCII
DATASET UNSTRUCTURED_GRID
POINTS 60 float
0 10 0
10 10 0
10 0 0
0 10 10
10 10 10
10 0 10
0 1 0
0 1 10
10 1 10
10 1 0
10 0 7
10 1 7
0 1 7
10 10 7
0 10 7
0 8 0
10 8 0
10 8 7
0 8 7
10 8 10
0 8 10
10 0 9
10 1 9
0 1 9
0 10 9
10 10 9
10 8 9
0 8 9
1 0 0
1 1 0
1 1 7
1 0 7
1 8 0
1 8 7
1 10 0
1 10 7
1 0 9
1 1 9
1 0 10
1 1 10
1 10 10
1 8 10
1 8 9
1 10 9
3 0 0
3 1 0
3 1 7
3 0 7
3 8 0
3 8 7
3 10 0
3 10 7
3 0 9
3 1 9
3 0 10
3 1 10
3 10 10
3 8 10
3 8 9
3 10 9

CELLS 86 430
4 2 9 11 10 
4 0 14 18 15 
4 28 29 30 31 
4 21 22 53 52 
4 50 51 49 48 
4 1 16 48 50 
4 1 13 17 16 
4 51 49 33 35 
4 13 17 49 51 
4 1 13 51 50 
4 46 49 33 30 
4 5 8 22 21 
4 11 17 49 46 
4 15 18 12 6 
4 16 17 49 48 
4 29 30 12 6 
4 44 45 46 47 
4 44 47 31 28 
4 2 10 47 44 
4 47 46 30 31 
4 10 11 46 47 
4 4 19 26 25 
4 25 26 17 13 
4 45 46 30 29 
4 9 11 46 45 
4 3 20 27 24 
4 24 27 18 14 
4 44 45 29 28 
4 8 19 26 22 
4 22 26 17 11 
4 7 20 27 23 
4 23 27 18 12 
4 2 9 45 44 
4 32 33 18 15 
4 30 33 18 12 
4 29 32 15 6 
4 32 33 30 29 
4 34 35 14 0 
4 35 33 18 14 
4 34 32 15 0 
4 34 35 33 32 
4 30 37 23 12 
4 39 37 23 7 
4 38 39 37 36 
4 40 41 20 3 
4 41 42 27 20 
4 43 42 27 24 
4 40 43 24 3 
4 40 41 42 43 
4 33 42 27 18 
4 35 43 24 14 
4 43 42 33 35 
4 39 41 20 7 
4 37 42 27 23 
4 39 41 42 37 
4 37 42 33 30 
4 52 53 37 36 
4 11 22 53 46 
4 46 53 37 30 
4 5 8 55 54 
4 54 55 39 38 
4 8 22 53 55 
4 55 53 37 39 
4 5 21 52 54 
4 54 52 36 38 
4 54 55 53 52 
4 4 19 57 56 
4 56 57 41 40 
4 19 26 58 57 
4 57 58 42 41 
4 25 26 58 59 
4 59 58 42 43 
4 4 25 59 56 
4 56 59 43 40 
4 56 57 58 59 
4 17 26 58 49 
4 49 58 42 33 
4 13 25 59 51 
4 51 59 43 35 
4 59 58 49 51 
4 8 19 57 55 
4 55 57 41 39 
4 22 26 58 53 
4 53 58 42 37 
4 55 57 58 53 
4 53 58 49 46 

CELL_TYPES 86
9 
9 
9 
9 
9 
9 
9 
9 
9 
9 
9 
9 
9 
9 
9 
9 
9 
9 
9 
9 
9 
9 
9 
9 
9 
9 
9 
9 
9 
9 
9 
9 
9 
9 
9 
9 
9 
9 
9 
9 
9 
9 
9 
9 
9 
9 
9 
9 
9 
9 
9 
9 
9 
9 
9 
9 
9 
9 
9 
9 
9 
9 
9 
9 
9 
9 
9 
9 
9 
9 
9 
9 
9 
9 
9 
9 
9 
9 
9 
9 
9 
9 
9 
9 
9 
9 
POINT_DATA 60
SCALARS GMDS_ID int 1
LOOKUP_TABLE default
0 1 2 4 5 6 7 8 9 10 11 12 13 14 15 16 17 18 19 20 21 23 24 25 26 27 28 29 30 31 32 33 34 35 36 37 38 39 40 41 42 43 44 45 46 47 48 49 50 51 52 53 54 55 56 57 58 59 60 61 
SCALARS geom_link_dim int 1
LOOKUP_TABLE default
1 1 1 1 1 1 1 1 2 2 2 2 2 2 1 2 2 3 1 2 2 2 2 2 1 2 3 1 1 1 2 2 3 2 2 2 2 2 1 1 2 3 0 2 2 3 0 3 3 1 2 1 3 0 2 3 2 3 0 1 
SCALARS geom_link_id int 1
LOOKUP_TABLE default
7 13 18 2 9 10 8 1 14 11 10 10 27 13 6 12 11 6 5 14 17 10 10 27 3 13 6 4 19 20 1 23 2 5 16 15 23 1 11 12 24 1 0 25 8 2 -1 4 2 17 16 15 4 -1 9 1 24 1 0 14 


CELL_DATA 86
SCALARS GMDS_ID int 1
LOOKUP_TABLE default
0 1 2 3 4 5 7 8 9 10 11 12 13 14 15 16 17 18 19 20 21 22 23 24 25 26 27 28 29 30 31 32 33 34 35 36 37 38 39 40 41 43 45 47 48 49 50 51 52 53 54 55 56 57 58 59 60 61 62 63 64 65 66 67 68 69 70 71 72 73 74 75 76 77 78 79 80 81 82 83 84 85 86 87 88 89 

SCALARS geom_link_dim int 1
LOOKUP_TABLE default
0 0 0 0 0 0 0 0 0 0 0 0 0 0 0 0 0 0 0 0 0 0 0 0 0 0 0 0 0 0 0 0 0 0 0 0 0 0 0 0 0 0 0 0 0 0 0 0 0 0 0 0 0 0 0 0 0 0 0 0 0 0 0 0 0 0 0 0 0 0 0 0 0 0 0 0 0 0 0 0 0 0 0 0 0 0 

SCALARS geom_link_id int 1
LOOKUP_TABLE default
0 0 0 0 0 0 0 0 0 0 0 0 0 0 0 0 0 0 0 0 0 0 0 0 0 0 0 0 0 0 0 0 0 0 0 0 0 0 0 0 0 0 0 0 0 0 0 0 0 0 0 0 0 0 0 0 0 0 0 0 0 0 0 0 0 0 0 0 0 0 0 0 0 0 0 0 0 0 0 0 0 0 0 0 0 0 

