# vtk DataFile Version 3.0
Generated by GMDS VTK Writer

ASCII
DATASET UNSTRUCTURED_GRID
POINTS 47 float
3 0 7
0 10 0
10 10 0
10 0 0
0 0 10
0 10 10
10 10 10
10 0 10
0 1 0
0 1 10
10 1 10
10 1 0
0 8 0
0 8 10
10 8 10
10 8 0
0 0 7
10 0 7
10 1 7
0 1 7
10 8 7
0 8 7
10 10 7
0 10 7
1 0 7
1 1 7
1 1 10
1 0 10
1 0 0
1 1 0
1 8 0
1 8 7
1 8 10
1 10 0
1 10 7
1 10 10
3 1 7
3 1 10
3 0 10
3 0 0
3 1 0
3 8 0
3 8 7
3 8 10
3 10 0
3 10 7
3 10 10

CELLS 72 360
4 41 42 31 30 
4 15 20 42 41 
4 24 25 26 27 
4 27 24 16 4 
4 27 26 9 4 
4 17 18 10 7 
4 40 41 30 29 
4 3 11 18 17 
4 11 15 41 40 
4 39 40 36 0 
4 39 0 24 28 
4 26 25 19 9 
4 24 25 19 16 
4 3 17 0 39 
4 40 36 25 29 
4 11 18 36 40 
4 39 40 29 28 
4 10 18 36 37 
4 16 19 9 4 
4 3 11 40 39 
4 11 15 20 18 
4 18 20 14 10 
4 0 36 37 38 
4 38 0 24 27 
4 8 12 21 19 
4 19 21 13 9 
4 7 17 0 38 
4 2 15 20 22 
4 22 20 14 6 
4 38 37 26 27 
4 7 10 37 38 
4 1 12 21 23 
4 23 21 13 5 
4 37 36 25 26 
4 0 36 25 24 
4 29 25 19 8 
4 17 18 36 0 
4 28 29 25 24 
4 29 30 12 8 
4 30 31 21 12 
4 25 31 21 19 
4 29 30 31 25 
4 32 31 21 13 
4 26 32 13 9 
4 25 31 32 26 
4 33 30 12 1 
4 31 34 23 21 
4 33 34 23 1 
4 33 30 31 34 
4 35 32 13 5 
4 35 34 23 5 
4 34 31 32 35 
4 18 20 42 36 
4 36 42 31 25 
4 40 41 42 36 
4 14 20 42 43 
4 43 42 31 32 
4 10 14 43 37 
4 37 43 32 26 
4 36 42 43 37 
4 2 15 41 44 
4 44 41 30 33 
4 20 22 45 42 
4 42 45 34 31 
4 2 22 45 44 
4 44 45 34 33 
4 44 41 42 45 
4 6 14 43 46 
4 46 43 32 35 
4 6 22 45 46 
4 46 45 34 35 
4 45 42 43 46 

CELL_TYPES 72
9 
9 
9 
9 
9 
9 
9 
9 
9 
9 
9 
9 
9 
9 
9 
9 
9 
9 
9 
9 
9 
9 
9 
9 
9 
9 
9 
9 
9 
9 
9 
9 
9 
9 
9 
9 
9 
9 
9 
9 
9 
9 
9 
9 
9 
9 
9 
9 
9 
9 
9 
9 
9 
9 
9 
9 
9 
9 
9 
9 
9 
9 
9 
9 
9 
9 
9 
9 
9 
9 
9 
9 
POINT_DATA 47
SCALARS GMDS_ID int 1
LOOKUP_TABLE default
0 1 2 3 4 5 6 7 8 9 10 11 12 13 14 15 16 17 18 19 20 21 22 23 24 25 26 27 28 29 30 31 32 33 34 35 36 37 38 39 40 41 42 43 44 45 46 
SCALARS geom_link_dim int 1
LOOKUP_TABLE default
3 1 1 1 0 1 1 1 1 1 2 2 2 2 2 2 0 2 3 2 3 1 2 1 2 2 1 1 1 1 3 0 3 2 2 2 0 3 2 2 3 3 0 3 2 1 2 
SCALARS geom_link_id int 1
LOOKUP_TABLE default
4 7 13 18 -1 2 9 10 8 1 14 11 12 17 14 11 -1 10 6 27 6 5 13 6 23 1 12 11 19 20 2 0 1 16 15 24 -1 1 9 8 2 2 -1 1 16 15 24 


CELL_DATA 72
SCALARS GMDS_ID int 1
LOOKUP_TABLE default
0 1 3 4 6 7 8 9 11 12 13 14 16 17 18 20 21 22 23 24 25 26 27 28 29 30 31 32 33 34 35 36 37 38 39 41 43 44 46 48 50 51 53 55 56 58 60 62 63 65 67 68 69 70 71 72 73 74 75 76 77 78 79 80 81 82 83 84 85 86 87 88 

SCALARS geom_link_dim int 1
LOOKUP_TABLE default
0 0 0 0 0 0 0 0 0 0 0 0 0 0 0 0 0 0 0 0 0 0 0 0 0 0 0 0 0 0 0 0 0 0 0 0 0 0 0 0 0 0 0 0 0 0 0 0 0 0 0 0 0 0 0 0 0 0 0 0 0 0 0 0 0 0 0 0 0 0 0 0 

SCALARS geom_link_id int 1
LOOKUP_TABLE default
-1 -1 0 0 0 0 -1 0 -1 -1 -1 0 0 -1 -1 -1 -1 -1 0 -1 0 0 -1 -1 0 0 -1 0 0 -1 -1 0 0 -1 -1 0 -1 0 0 0 0 0 0 0 0 0 0 0 0 0 0 0 -1 -1 -1 -1 -1 -1 -1 -1 -1 -1 -1 -1 -1 -1 -1 -1 -1 -1 -1 -1 

