# vtk DataFile Version 3.0
Generated by GMDS VTK Writer

ASCII
DATASET UNSTRUCTURED_GRID
POINTS 60 float
3 0 7
0 10 0
10 10 0
10 0 0
3 1 9
0 10 10
10 10 10
10 0 10
0 1 0
0 1 10
10 1 10
10 1 0
0 8 0
0 8 10
10 8 10
10 8 0
3 0 9
10 0 7
10 1 7
0 1 7
10 8 7
0 8 7
10 10 7
0 10 7
1 0 7
1 1 7
1 1 10
1 0 10
1 0 0
1 1 0
1 8 0
1 8 7
1 8 10
1 10 0
1 10 7
1 10 10
3 1 7
3 1 10
3 0 10
3 0 0
3 1 0
3 8 0
3 8 7
3 8 10
3 10 0
3 10 7
3 10 10
1 1 9
1 0 9
10 0 9
10 1 9
1 8 9
0 8 9
0 1 9
1 10 9
0 10 9
10 8 9
3 8 9
10 10 9
3 10 9

CELLS 97 485
4 41 42 31 30 
4 15 20 42 41 
4 19 21 52 53 
4 0 36 4 16 
4 52 51 32 13 
4 16 4 37 38 
4 40 41 30 29 
4 3 11 18 17 
4 21 31 51 52 
4 11 15 41 40 
4 39 40 36 0 
4 39 0 24 28 
4 47 51 32 26 
4 25 36 4 47 
4 3 17 0 39 
4 40 36 25 29 
4 25 31 51 47 
4 11 18 36 40 
4 39 40 29 28 
4 47 4 37 26 
4 3 11 40 39 
4 11 15 20 18 
4 8 12 21 19 
4 2 15 20 22 
4 38 37 26 27 
4 7 10 37 38 
4 1 12 21 23 
4 0 36 25 24 
4 49 50 4 16 
4 29 25 19 8 
4 16 49 7 38 
4 17 18 36 0 
4 28 29 25 24 
4 0 17 49 16 
4 29 30 12 8 
4 50 4 37 10 
4 30 31 21 12 
4 18 36 4 50 
4 25 31 21 19 
4 29 30 31 25 
4 49 50 10 7 
4 17 18 50 49 
4 26 32 13 9 
4 16 4 47 48 
4 33 30 12 1 
4 16 48 27 38 
4 31 34 23 21 
4 0 24 48 16 
4 33 34 23 1 
4 33 30 31 34 
4 48 47 26 27 
4 35 32 13 5 
4 24 25 47 48 
4 18 20 42 36 
4 36 42 31 25 
4 40 41 42 36 
4 10 14 43 37 
4 37 43 32 26 
4 2 15 41 44 
4 44 41 30 33 
4 20 22 45 42 
4 42 45 34 31 
4 2 22 45 44 
4 44 45 34 33 
4 44 41 42 45 
4 6 14 43 46 
4 46 43 32 35 
4 53 52 13 9 
4 19 25 47 53 
4 53 47 26 9 
4 47 51 52 53 
4 31 34 54 51 
4 51 54 35 32 
4 23 34 54 55 
4 55 54 35 5 
4 21 23 55 52 
4 52 55 5 13 
4 51 54 55 52 
4 18 20 56 50 
4 50 56 14 10 
4 20 42 57 56 
4 56 57 43 14 
4 36 42 57 4 
4 4 57 43 37 
4 50 56 57 4 
4 31 42 57 51 
4 51 57 43 32 
4 4 57 51 47 
4 20 22 58 56 
4 56 58 6 14 
4 22 45 59 58 
4 58 59 46 6 
4 42 45 59 57 
4 57 59 46 43 
4 56 58 59 57 
4 54 59 46 35 
4 57 59 54 51 

CELL_TYPES 97
9 
9 
9 
9 
9 
9 
9 
9 
9 
9 
9 
9 
9 
9 
9 
9 
9 
9 
9 
9 
9 
9 
9 
9 
9 
9 
9 
9 
9 
9 
9 
9 
9 
9 
9 
9 
9 
9 
9 
9 
9 
9 
9 
9 
9 
9 
9 
9 
9 
9 
9 
9 
9 
9 
9 
9 
9 
9 
9 
9 
9 
9 
9 
9 
9 
9 
9 
9 
9 
9 
9 
9 
9 
9 
9 
9 
9 
9 
9 
9 
9 
9 
9 
9 
9 
9 
9 
9 
9 
9 
9 
9 
9 
9 
9 
9 
9 
POINT_DATA 60
SCALARS GMDS_ID int 1
LOOKUP_TABLE default
0 1 2 3 4 5 6 7 8 9 10 11 12 13 14 15 16 17 18 19 20 21 22 23 24 25 26 27 28 29 30 31 32 33 34 35 36 37 38 39 40 41 42 43 44 45 46 47 48 49 50 51 52 53 54 55 56 57 58 59 
SCALARS geom_link_dim int 1
LOOKUP_TABLE default
3 1 1 1 0 1 1 1 1 1 2 2 2 2 2 2 3 2 3 2 3 1 2 1 2 2 1 1 1 1 3 2 3 2 2 2 0 3 2 2 3 3 1 3 2 1 2 2 2 2 3 2 1 2 2 1 3 1 2 1 
SCALARS geom_link_id int 1
LOOKUP_TABLE default
4 7 13 18 0 2 9 10 8 1 14 11 12 17 14 11 4 10 6 27 6 5 13 6 23 1 12 11 19 20 2 5 1 16 15 24 0 1 9 8 2 2 17 1 16 15 24 1 23 10 6 2 4 27 25 3 6 16 13 14 


CELL_DATA 97
SCALARS GMDS_ID int 1
LOOKUP_TABLE default
0 1 2 4 5 6 8 9 10 11 12 13 15 16 17 18 19 20 21 23 24 25 29 32 34 35 36 39 40 41 42 43 44 45 46 47 48 49 50 51 52 54 55 57 58 59 60 61 62 63 64 65 66 69 70 71 74 75 77 78 79 80 81 82 83 84 85 89 90 91 92 93 94 95 96 97 98 99 100 101 102 103 104 105 106 107 108 109 110 111 112 113 114 115 116 118 119 

SCALARS geom_link_dim int 1
LOOKUP_TABLE default
0 0 0 0 0 0 0 0 0 0 0 0 0 0 0 0 0 0 0 0 0 0 0 0 0 0 0 0 0 0 0 0 0 0 0 0 0 0 0 0 0 0 0 0 0 0 0 0 0 0 0 0 0 0 0 0 0 0 0 0 0 0 0 0 0 0 0 0 0 0 0 0 0 0 0 0 0 0 0 0 0 0 0 0 0 0 0 0 0 0 0 0 0 0 0 0 0 

SCALARS geom_link_id int 1
LOOKUP_TABLE default
0 0 0 0 0 0 0 0 0 0 0 0 0 0 0 0 0 0 0 0 0 0 0 0 0 0 0 0 0 0 0 0 0 0 0 0 0 0 0 0 0 0 0 0 0 0 0 0 0 0 0 0 0 0 0 0 0 0 0 0 0 0 0 0 0 0 0 0 0 0 0 0 0 0 0 0 0 0 0 0 0 0 0 0 0 0 0 0 0 0 0 0 0 0 0 0 0 

