# vtk DataFile Version 3.0
Generated by GMDS VTK Writer

ASCII
DATASET UNSTRUCTURED_GRID
POINTS 48 float
0 0 0
0 10 0
10 10 0
10 0 0
0 0 10
0 10 10
10 10 10
10 0 10
3 0 0
3 10 0
3 10 10
3 0 10
0 1 0
0 1 10
3 1 10
3 1 0
10 1 10
10 1 0
0 0 9
3 0 9
3 1 9
0 1 9
3 10 9
0 10 9
10 0 9
10 1 9
10 10 9
0 8 0
3 8 0
3 8 9
0 8 9
3 8 10
0 8 10
10 8 0
10 8 9
10 8 10
0 0 7
3 0 7
3 1 7
0 1 7
0 8 7
3 8 7
10 0 7
10 1 7
0 10 7
3 10 7
10 10 7
10 8 7

CELLS 75 375
4 15 28 41 38 
4 4 11 14 13 
4 21 20 14 13 
4 5 10 31 32 
4 31 29 20 14 
4 19 20 14 11 
4 10 22 29 31 
4 18 19 11 4 
4 29 30 21 20 
4 22 23 30 29 
4 0 8 15 12 
4 40 41 29 30 
4 7 11 14 16 
4 27 28 41 40 
4 27 28 15 12 
4 3 8 15 17 
4 36 37 38 39 
4 1 9 28 27 
4 18 21 13 4 
4 18 19 20 21 
4 36 39 21 18 
4 0 12 39 36 
4 23 22 10 5 
4 39 38 20 21 
4 12 15 38 39 
4 37 38 20 19 
4 24 19 11 7 
4 20 25 16 14 
4 24 25 16 7 
4 24 19 20 25 
4 26 22 10 6 
4 8 15 38 37 
4 36 37 19 18 
4 0 8 37 36 
4 32 31 14 13 
4 5 23 30 32 
4 32 30 21 13 
4 30 29 31 32 
4 2 9 28 33 
4 33 28 15 17 
4 22 26 34 29 
4 29 34 25 20 
4 6 10 31 35 
4 35 31 14 16 
4 6 26 34 35 
4 35 34 25 16 
4 34 29 31 35 
4 38 41 29 20 
4 12 27 40 39 
4 39 40 30 21 
4 40 41 38 39 
4 3 8 37 42 
4 42 37 19 24 
4 15 17 43 38 
4 38 43 25 20 
4 3 17 43 42 
4 42 43 25 24 
4 42 37 38 43 
4 1 9 45 44 
4 44 45 22 23 
4 9 28 41 45 
4 45 41 29 22 
4 1 27 40 44 
4 44 40 30 23 
4 44 45 41 40 
4 2 9 45 46 
4 46 45 22 26 
4 28 33 47 41 
4 41 47 34 29 
4 2 33 47 46 
4 46 47 34 26 
4 46 45 41 47 
4 17 33 47 43 
4 43 47 34 25 
4 47 41 38 43 

CELL_TYPES 75
9 
9 
9 
9 
9 
9 
9 
9 
9 
9 
9 
9 
9 
9 
9 
9 
9 
9 
9 
9 
9 
9 
9 
9 
9 
9 
9 
9 
9 
9 
9 
9 
9 
9 
9 
9 
9 
9 
9 
9 
9 
9 
9 
9 
9 
9 
9 
9 
9 
9 
9 
9 
9 
9 
9 
9 
9 
9 
9 
9 
9 
9 
9 
9 
9 
9 
9 
9 
9 
9 
9 
9 
9 
9 
9 
POINT_DATA 48
SCALARS GMDS_ID int 1
LOOKUP_TABLE default
0 1 2 3 4 5 6 7 8 9 10 11 12 13 14 15 16 17 18 19 20 21 22 23 24 25 26 27 28 29 30 31 32 33 34 35 36 37 38 39 40 41 42 43 44 45 46 47 
SCALARS geom_link_dim int 1
LOOKUP_TABLE default
0 1 1 1 0 1 1 1 2 2 2 2 1 1 3 3 2 2 0 3 0 2 1 1 2 3 2 2 3 0 1 3 2 2 3 2 0 3 0 2 1 0 2 3 1 1 2 3 
SCALARS geom_link_id int 1
LOOKUP_TABLE default
-1 7 13 18 -1 2 9 10 8 16 24 9 8 1 1 2 14 11 -1 4 0 27 14 3 10 6 13 12 2 0 4 1 17 11 6 14 -1 4 -1 27 5 -1 10 6 6 15 13 6 


CELL_DATA 75
SCALARS GMDS_ID int 1
LOOKUP_TABLE default
0 2 3 4 5 7 8 11 15 16 17 18 20 21 23 24 25 26 27 28 29 30 32 33 34 35 37 39 41 42 44 45 46 47 48 49 50 51 52 53 54 55 59 60 61 62 63 64 65 66 67 68 69 70 71 72 73 74 75 76 77 78 79 80 81 82 83 84 85 86 87 88 89 90 91 

SCALARS geom_link_dim int 1
LOOKUP_TABLE default
0 0 0 0 0 0 0 0 0 0 0 0 0 0 0 0 0 0 0 0 0 0 0 0 0 0 0 0 0 0 0 0 0 0 0 0 0 0 0 0 0 0 0 0 0 0 0 0 0 0 0 0 0 0 0 0 0 0 0 0 0 0 0 0 0 0 0 0 0 0 0 0 0 0 0 

SCALARS geom_link_id int 1
LOOKUP_TABLE default
-1 0 0 0 0 0 0 0 0 0 0 -1 0 -1 0 0 -1 0 0 0 -1 -1 0 -1 -1 -1 0 0 0 0 0 -1 -1 -1 0 0 0 0 0 0 0 0 0 0 0 0 0 -1 -1 -1 -1 -1 -1 -1 -1 -1 -1 -1 -1 -1 -1 -1 -1 -1 -1 -1 -1 -1 -1 -1 -1 -1 -1 -1 -1 

