# vtk DataFile Version 3.0
Generated by GMDS VTK Writer

ASCII
DATASET UNSTRUCTURED_GRID
POINTS 24 float
0 0 0
0 10 0
10 10 0
10 0 0
0 0 10
0 10 10
10 10 10
10 0 10
0 1 0
0 1 10
10 1 10
10 1 0
0 8 0
0 8 10
10 8 10
10 8 0
0 0 7
10 0 7
10 1 7
0 1 7
10 8 7
0 8 7
10 10 7
0 10 7

CELLS 29 145
4 13 14 6 5 
4 9 10 14 13 
4 17 18 10 7 
4 4 7 10 9 
4 3 11 18 17 
4 16 17 7 4 
4 0 3 11 8 
4 0 3 17 16 
4 8 11 15 12 
4 12 15 2 1 
4 8 11 18 19 
4 19 18 10 9 
4 0 8 19 16 
4 16 19 9 4 
4 16 17 18 19 
4 11 15 20 18 
4 18 20 14 10 
4 12 15 20 21 
4 21 20 14 13 
4 8 12 21 19 
4 19 21 13 9 
4 19 18 20 21 
4 2 15 20 22 
4 22 20 14 6 
4 1 2 22 23 
4 23 22 6 5 
4 1 12 21 23 
4 23 21 13 5 
4 21 20 22 23 

CELL_TYPES 29
9 
9 
9 
9 
9 
9 
9 
9 
9 
9 
9 
9 
9 
9 
9 
9 
9 
9 
9 
9 
9 
9 
9 
9 
9 
9 
9 
9 
9 
POINT_DATA 24
SCALARS GMDS_ID int 1
LOOKUP_TABLE default
0 1 2 3 4 5 6 7 8 9 10 11 12 13 14 15 16 17 18 19 20 21 22 23 
SCALARS geom_link_dim int 1
LOOKUP_TABLE default
0 1 1 1 0 1 1 1 1 1 2 2 2 2 2 2 0 2 3 2 3 1 2 1 
SCALARS geom_link_id int 1
LOOKUP_TABLE default
-1 7 13 18 -1 2 9 10 8 1 14 11 12 17 14 11 -1 10 6 27 6 5 13 6 


CELL_DATA 29
SCALARS GMDS_ID int 1
LOOKUP_TABLE default
0 1 7 8 9 11 12 13 17 18 20 21 22 23 24 25 26 27 28 29 30 31 32 33 34 35 36 37 38 

SCALARS geom_link_dim int 1
LOOKUP_TABLE default
0 0 0 0 0 0 0 0 0 0 0 0 0 0 0 0 0 0 0 0 0 0 0 0 0 0 0 0 0 

SCALARS geom_link_id int 1
LOOKUP_TABLE default
0 0 -1 0 -1 -1 0 -1 0 0 -1 -1 -1 -1 -1 -1 -1 -1 -1 -1 -1 -1 -1 -1 -1 -1 -1 -1 -1 

