# vtk DataFile Version 3.0
Generated by GMDS VTK Writer

ASCII
DATASET UNSTRUCTURED_GRID
POINTS 60 float
0 10 0
10 10 0
10 0 0
0 10 10
10 10 10
10 0 10
3 0 0
3 10 0
3 10 10
3 0 10
0 1 0
0 1 10
3 1 10
3 1 0
10 1 10
10 1 0
3 0 9
3 1 9
0 1 9
3 10 9
0 10 9
10 0 9
10 1 9
10 10 9
0 8 0
3 8 0
3 8 9
0 8 9
3 8 10
0 8 10
10 8 0
10 8 9
10 8 10
3 0 7
3 1 7
0 1 7
0 8 7
3 8 7
10 0 7
10 1 7
0 10 7
3 10 7
10 10 7
10 8 7
1 0 9
1 1 9
1 1 10
1 0 10
1 0 7
1 1 7
1 0 0
1 1 0
1 10 10
1 10 9
1 8 9
1 8 10
1 8 0
1 8 7
1 10 0
1 10 7

CELLS 96 480
4 13 25 37 34 
4 28 26 17 12 
4 48 49 45 44 
4 16 17 12 9 
4 8 19 26 28 
4 44 48 33 16 
4 45 49 34 17 
4 18 35 49 45 
4 48 49 34 33 
4 5 9 12 14 
4 44 45 46 47 
4 2 6 13 15 
4 47 44 16 9 
4 33 34 17 16 
4 21 16 9 5 
4 47 46 12 9 
4 17 22 14 12 
4 21 22 14 5 
4 21 16 17 22 
4 46 45 17 12 
4 23 19 8 4 
4 6 13 34 33 
4 3 20 27 29 
4 29 27 18 11 
4 1 7 25 30 
4 30 25 13 15 
4 19 23 31 26 
4 26 31 22 17 
4 11 18 45 46 
4 44 45 17 16 
4 4 8 28 32 
4 32 28 12 14 
4 4 23 31 32 
4 32 31 22 14 
4 31 26 28 32 
4 34 37 26 17 
4 10 24 36 35 
4 35 36 27 18 
4 2 6 33 38 
4 38 33 16 21 
4 13 15 39 34 
4 34 39 22 17 
4 2 15 39 38 
4 38 39 22 21 
4 38 33 34 39 
4 7 25 37 41 
4 41 37 26 19 
4 0 24 36 40 
4 1 7 41 42 
4 42 41 19 23 
4 25 30 43 37 
4 37 43 31 26 
4 1 30 43 42 
4 42 43 31 23 
4 42 41 37 43 
4 15 30 43 39 
4 39 43 31 22 
4 43 37 34 39 
4 50 51 13 6 
4 10 35 49 51 
4 51 49 34 13 
4 50 48 33 6 
4 50 51 49 48 
4 3 20 53 52 
4 52 53 19 8 
4 20 27 54 53 
4 53 54 26 19 
4 27 29 55 54 
4 54 55 28 26 
4 3 29 55 52 
4 52 55 28 8 
4 52 53 54 55 
4 18 27 54 45 
4 45 54 26 17 
4 11 29 55 46 
4 46 55 28 12 
4 55 54 45 46 
4 10 24 56 51 
4 51 56 25 13 
4 24 36 57 56 
4 56 57 37 25 
4 35 36 57 49 
4 49 57 37 34 
4 51 56 57 49 
4 27 36 57 54 
4 54 57 37 26 
4 49 57 54 45 
4 0 24 56 58 
4 58 56 25 7 
4 36 40 59 57 
4 57 59 41 37 
4 0 40 59 58 
4 58 59 41 7 
4 58 56 57 59 
4 53 59 41 19 
4 59 57 54 53 

CELL_TYPES 96
9 
9 
9 
9 
9 
9 
9 
9 
9 
9 
9 
9 
9 
9 
9 
9 
9 
9 
9 
9 
9 
9 
9 
9 
9 
9 
9 
9 
9 
9 
9 
9 
9 
9 
9 
9 
9 
9 
9 
9 
9 
9 
9 
9 
9 
9 
9 
9 
9 
9 
9 
9 
9 
9 
9 
9 
9 
9 
9 
9 
9 
9 
9 
9 
9 
9 
9 
9 
9 
9 
9 
9 
9 
9 
9 
9 
9 
9 
9 
9 
9 
9 
9 
9 
9 
9 
9 
9 
9 
9 
9 
9 
9 
9 
9 
9 
POINT_DATA 60
SCALARS GMDS_ID int 1
LOOKUP_TABLE default
1 2 3 5 6 7 8 9 10 11 12 13 14 15 16 17 19 20 21 22 23 24 25 26 27 28 29 30 31 32 33 34 35 37 38 39 40 41 42 43 44 45 46 47 48 49 50 51 52 53 54 55 56 57 58 59 60 61 62 63 
SCALARS geom_link_dim int 1
LOOKUP_TABLE default
1 1 1 1 1 1 2 2 2 2 1 1 3 3 2 2 3 0 2 1 1 2 3 2 2 3 0 1 3 2 2 3 2 3 0 2 1 0 2 3 1 1 2 3 2 2 1 1 2 2 1 1 2 2 2 3 3 2 2 2 
SCALARS geom_link_id int 1
LOOKUP_TABLE default
7 13 18 2 9 10 8 16 24 9 8 1 1 2 14 11 4 0 27 14 3 10 6 13 12 2 0 4 1 17 11 6 14 4 0 27 5 0 10 6 6 15 13 6 23 1 12 11 23 1 19 20 24 25 2 1 2 5 16 15 


CELL_DATA 96
SCALARS GMDS_ID int 1
LOOKUP_TABLE default
0 5 6 7 8 9 12 13 14 20 22 24 31 35 37 38 39 41 42 43 44 45 49 50 52 53 54 55 56 57 59 60 61 62 63 64 65 66 68 69 70 71 72 73 74 77 78 79 82 83 84 85 86 87 88 89 90 91 92 93 94 96 97 98 99 100 101 102 103 104 105 106 107 108 109 110 111 112 113 114 115 116 117 118 119 120 121 122 123 124 125 126 127 128 130 131 

SCALARS geom_link_dim int 1
LOOKUP_TABLE default
0 0 0 0 0 0 0 0 0 0 0 0 0 0 0 0 0 0 0 0 0 0 0 0 0 0 0 0 0 0 0 0 0 0 0 0 0 0 0 0 0 0 0 0 0 0 0 0 0 0 0 0 0 0 0 0 0 0 0 0 0 0 0 0 0 0 0 0 0 0 0 0 0 0 0 0 0 0 0 0 0 0 0 0 0 0 0 0 0 0 0 0 0 0 0 0 

SCALARS geom_link_id int 1
LOOKUP_TABLE default
0 0 0 0 0 0 0 0 0 0 0 0 0 0 0 0 0 0 0 0 0 0 0 0 0 0 0 0 0 0 0 0 0 0 0 0 0 0 0 0 0 0 0 0 0 0 0 0 0 0 0 0 0 0 0 0 0 0 0 0 0 0 0 0 0 0 0 0 0 0 0 0 0 0 0 0 0 0 0 0 0 0 0 0 0 0 0 0 0 0 0 0 0 0 0 0 

