# vtk DataFile Version 3.0
Generated by GMDS VTK Writer

ASCII
DATASET UNSTRUCTURED_GRID
POINTS 36 float
0 0 0
0 10 0
10 10 0
10 0 0
0 0 10
0 10 10
10 10 10
10 0 10
0 4 0
0 4 10
10 4 10
10 4 0
0 0 4
10 0 4
10 4 4
0 4 4
10 10 4
0 10 4
0 6 0
10 6 0
10 6 4
0 6 4
10 6 10
0 6 10
2 4 0
2 4 4
2 6 4
2 6 0
2 0 0
2 0 4
2 4 10
2 0 10
2 10 4
2 10 0
2 6 10
2 10 10

CELLS 12 108
8 24 25 26 27 11 14 20 19 
8 8 15 21 18 24 25 26 27 
8 0 8 15 12 28 24 25 29 
8 28 24 25 29 3 11 14 13 
8 12 15 9 4 29 25 30 31 
8 29 25 30 31 13 14 10 7 
8 18 21 17 1 27 26 32 33 
8 27 26 32 33 19 20 16 2 
8 9 15 21 23 30 25 26 34 
8 30 25 26 34 10 14 20 22 
8 23 21 17 5 34 26 32 35 
8 34 26 32 35 22 20 16 6 

CELL_TYPES 12
12 
12 
12 
12 
12 
12 
12 
12 
12 
12 
12 
12 
POINT_DATA 36
SCALARS GMDS_ID int 1
LOOKUP_TABLE default
0 1 2 3 4 5 6 7 8 9 10 11 12 13 14 15 16 17 18 19 20 21 22 23 24 25 26 27 28 29 30 31 32 33 34 35 
SCALARS geom_link_dim int 1
LOOKUP_TABLE default
1 1 1 1 1 1 1 1 1 2 2 2 2 2 3 1 2 2 1 2 3 1 2 2 1 0 0 1 2 3 3 2 3 2 3 2 
SCALARS geom_link_id int 1
LOOKUP_TABLE default
12 11 15 16 10 9 13 14 2 8 13 12 19 7 8 1 6 9 4 12 8 3 13 8 6 -1 -1 8 15 3 6 14 7 16 6 10 


CELL_DATA 12
SCALARS GMDS_ID int 1
LOOKUP_TABLE default
4 5 8 9 10 11 12 13 14 15 16 17 

SCALARS is_in int 1
LOOKUP_TABLE default
1 0 1 1 1 1 1 1 1 1 1 1 

SCALARS geom_link_dim int 1
LOOKUP_TABLE default
0 0 0 0 0 0 0 0 0 0 0 0 

SCALARS geom_link_id int 1
LOOKUP_TABLE default
-1 -1 -1 -1 -1 -1 -1 -1 -1 -1 -1 -1 

