# vtk DataFile Version 3.0
Generated by GMDS VTK Writer

ASCII
DATASET UNSTRUCTURED_GRID
POINTS 36 float
0 0 0
0 10 0
10 10 0
10 0 0
0 0 10
0 10 10
10 10 10
10 0 10
0 4 0
0 4 10
10 4 10
10 4 0
2 0 0
2 0 10
2 4 10
2 4 0
2 10 10
2 10 0
0 0 4
0 4 4
2 4 4
2 0 4
10 4 4
10 0 4
0 10 4
2 10 4
10 10 4
0 6 4
2 6 4
2 6 10
0 6 10
0 6 0
2 6 0
10 6 0
10 6 4
10 6 10

CELLS 12 108
8 31 32 28 27 1 17 25 24 
8 18 19 20 21 4 9 14 13 
8 0 8 15 12 18 19 20 21 
8 8 15 20 19 31 32 28 27 
8 27 28 29 30 24 25 16 5 
8 19 20 14 9 27 28 29 30 
8 12 15 11 3 21 20 22 23 
8 21 20 22 23 13 14 10 7 
8 11 15 20 22 33 32 28 34 
8 33 32 28 34 2 17 25 26 
8 22 20 14 10 34 28 29 35 
8 34 28 29 35 26 25 16 6 

CELL_TYPES 12
12 
12 
12 
12 
12 
12 
12 
12 
12 
12 
12 
12 
POINT_DATA 36
SCALARS GMDS_ID int 1
LOOKUP_TABLE default
0 1 2 3 4 5 6 7 8 9 10 11 12 13 14 15 16 17 18 19 20 21 22 23 24 25 26 27 28 29 30 31 32 33 34 35 
SCALARS geom_link_dim int 1
LOOKUP_TABLE default
1 1 1 1 1 1 1 1 1 2 2 2 2 2 3 1 2 2 2 1 0 3 3 2 2 3 2 1 0 3 2 1 1 2 3 2 
SCALARS geom_link_id int 1
LOOKUP_TABLE default
12 11 15 16 10 9 13 14 2 8 13 12 15 14 6 6 10 16 19 1 0 3 8 7 9 7 6 3 -1 6 8 4 8 12 8 13 


CELL_DATA 12
SCALARS GMDS_ID int 1
LOOKUP_TABLE default
0 1 2 3 4 5 6 7 12 13 14 15 

SCALARS is_in int 1
LOOKUP_TABLE default
1 1 1 0 1 1 1 1 1 1 1 1 

SCALARS geom_link_dim int 1
LOOKUP_TABLE default
0 0 0 0 0 0 0 0 0 0 0 0 

SCALARS geom_link_id int 1
LOOKUP_TABLE default
-1 0 0 -1 -1 -1 0 0 -1 -1 -1 -1 

