# vtk DataFile Version 3.0
Generated by GMDS VTK Writer

ASCII
DATASET UNSTRUCTURED_GRID
POINTS 36 float
0 0 0
0 10 0
10 10 0
10 0 0
0 0 10
0 10 10
10 10 10
10 0 10
0 4 0
0 4 10
10 4 10
10 4 0
2 0 0
2 0 10
2 4 10
2 4 0
2 10 10
2 10 0
0 0 4
0 4 4
2 4 4
2 0 4
10 4 4
10 0 4
0 10 4
2 10 4
10 10 4
0 6 4
2 6 4
2 6 10
0 6 10
0 6 0
2 6 0
10 6 0
10 6 4
10 6 10

CELLS 75 225
2 13 7
2 18 4
2 4 13
2 15 20
2 12 3
2 0 18
2 0 12
2 8 19
2 30 5
2 14 29
2 20 28
2 19 27
2 0 8
2 4 9
2 7 10
2 3 11
2 27 28
2 19 9
2 27 24
2 20 14
2 9 14
2 14 10
2 8 15
2 15 11
2 29 16
2 13 14
2 9 30
2 12 15
2 5 16
2 16 6
2 1 17
2 17 2
2 28 25
2 12 21
2 21 13
2 18 19
2 19 20
2 21 20
2 18 21
2 11 22
2 22 10
2 3 23
2 23 7
2 22 20
2 23 22
2 23 21
2 1 24
2 24 5
2 17 25
2 25 16
2 24 25
2 2 26
2 26 6
2 26 25
2 29 28
2 30 29
2 30 27
2 8 31
2 31 1
2 15 32
2 32 17
2 31 32
2 32 28
2 31 27
2 11 33
2 33 2
2 22 34
2 34 26
2 33 32
2 28 34
2 33 34
2 10 35
2 35 6
2 35 29
2 35 34

CELL_TYPES 75
3 
3 
3 
3 
3 
3 
3 
3 
3 
3 
3 
3 
3 
3 
3 
3 
3 
3 
3 
3 
3 
3 
3 
3 
3 
3 
3 
3 
3 
3 
3 
3 
3 
3 
3 
3 
3 
3 
3 
3 
3 
3 
3 
3 
3 
3 
3 
3 
3 
3 
3 
3 
3 
3 
3 
3 
3 
3 
3 
3 
3 
3 
3 
3 
3 
3 
3 
3 
3 
3 
3 
3 
3 
3 
3 
POINT_DATA 36
SCALARS GMDS_ID int 1
LOOKUP_TABLE default
0 1 2 3 4 5 6 7 8 9 10 11 12 13 14 15 16 17 18 19 20 21 22 23 24 25 26 27 28 29 30 31 32 33 34 35 
SCALARS geom_link_dim int 1
LOOKUP_TABLE default
1 1 1 1 1 1 1 1 1 2 2 2 2 2 3 1 2 2 2 1 0 3 3 2 2 3 2 1 0 3 2 1 1 2 3 2 
SCALARS geom_link_id int 1
LOOKUP_TABLE default
12 11 15 16 10 9 13 14 2 8 13 12 15 14 6 6 10 16 19 1 0 3 8 7 9 7 6 3 -1 6 8 4 8 12 8 13 


CELL_DATA 75
SCALARS GMDS_ID int 1
LOOKUP_TABLE default
0 1 2 3 4 5 6 7 8 9 10 11 12 14 16 18 20 21 22 23 24 25 26 27 28 29 30 31 32 33 34 35 37 39 40 41 42 43 44 45 46 47 48 49 50 51 52 53 54 55 58 59 60 62 63 64 65 66 67 68 69 70 71 72 73 74 75 76 77 78 79 80 81 82 83 

SCALARS geom_link_dim int 1
LOOKUP_TABLE default
2 2 2 0 2 2 2 2 2 0 0 2 2 2 2 2 0 0 0 0 0 0 2 0 0 0 2 0 2 2 2 2 0 0 0 0 0 0 0 0 0 2 2 0 0 0 2 2 0 0 0 2 2 0 0 0 0 0 2 2 0 2 0 2 2 2 0 0 0 0 0 2 2 0 0 

SCALARS geom_link_id int 1
LOOKUP_TABLE default
14 19 14 0 15 19 15 20 8 -1 -1 24 11 8 13 12 -1 0 -1 0 0 0 18 0 -1 0 8 0 10 10 16 16 -1 0 0 0 0 0 0 0 0 7 7 0 0 0 9 9 0 0 0 6 6 0 -1 -1 -1 -1 23 17 -1 21 -1 22 12 12 -1 -1 -1 -1 -1 13 13 -1 -1 

