# vtk DataFile Version 3.0
Generated by GMDS VTK Writer

ASCII
DATASET UNSTRUCTURED_GRID
POINTS 36 float
0 0 0
0 10 0
10 10 0
10 0 0
0 0 10
0 10 10
10 10 10
10 0 10
0 4 0
0 4 10
10 4 10
10 4 0
0 0 4
10 0 4
10 4 4
0 4 4
10 10 4
0 10 4
0 6 0
10 6 0
10 6 4
0 6 4
10 6 10
0 6 10
2 4 0
2 4 4
2 6 4
2 6 0
2 0 0
2 0 4
2 4 10
2 0 10
2 10 4
2 10 0
2 6 10
2 10 10

CELLS 75 225
2 13 7
2 3 13
2 12 4
2 0 12
2 14 20
2 18 1
2 8 18
2 11 19
2 0 8
2 26 20
2 4 9
2 8 24
2 7 10
2 24 11
2 3 11
2 21 26
2 20 16
2 19 2
2 11 14
2 14 10
2 8 15
2 15 9
2 13 14
2 12 15
2 2 16
2 16 6
2 1 17
2 17 5
2 15 25
2 25 14
2 15 21
2 21 17
2 19 20
2 18 21
2 10 22
2 22 6
2 9 23
2 23 5
2 22 20
2 23 21
2 18 27
2 27 19
2 24 25
2 25 26
2 27 26
2 24 27
2 0 28
2 28 3
2 12 29
2 29 13
2 28 24
2 29 25
2 28 29
2 9 30
2 30 10
2 4 31
2 31 7
2 30 25
2 31 30
2 31 29
2 17 32
2 32 16
2 1 33
2 33 2
2 32 26
2 33 32
2 33 27
2 23 34
2 34 22
2 26 34
2 30 34
2 5 35
2 35 6
2 35 32
2 35 34

CELL_TYPES 75
3 
3 
3 
3 
3 
3 
3 
3 
3 
3 
3 
3 
3 
3 
3 
3 
3 
3 
3 
3 
3 
3 
3 
3 
3 
3 
3 
3 
3 
3 
3 
3 
3 
3 
3 
3 
3 
3 
3 
3 
3 
3 
3 
3 
3 
3 
3 
3 
3 
3 
3 
3 
3 
3 
3 
3 
3 
3 
3 
3 
3 
3 
3 
3 
3 
3 
3 
3 
3 
3 
3 
3 
3 
3 
3 
POINT_DATA 36
SCALARS GMDS_ID int 1
LOOKUP_TABLE default
0 1 2 3 4 5 6 7 8 9 10 11 12 13 14 15 16 17 18 19 20 21 22 23 24 25 26 27 28 29 30 31 32 33 34 35 
SCALARS geom_link_dim int 1
LOOKUP_TABLE default
1 1 1 1 1 1 1 1 1 2 2 2 2 2 3 1 2 2 1 2 3 1 2 2 1 0 0 1 2 3 3 2 3 2 3 2 
SCALARS geom_link_id int 1
LOOKUP_TABLE default
12 11 15 16 10 9 13 14 2 8 13 12 19 7 8 1 6 9 4 12 8 3 13 8 6 -1 -1 8 15 3 6 14 7 16 6 10 


CELL_DATA 75
SCALARS GMDS_ID int 1
LOOKUP_TABLE default
0 2 4 6 8 9 10 11 12 13 14 15 16 17 18 19 20 22 24 25 26 27 29 31 32 33 34 35 36 38 39 40 42 44 45 46 47 48 49 51 52 53 54 55 56 57 58 59 60 61 62 63 64 65 66 67 68 69 70 71 72 73 74 75 76 77 78 79 80 81 82 83 84 85 86 

SCALARS geom_link_dim int 1
LOOKUP_TABLE default
2 2 2 2 0 2 0 0 2 0 2 2 0 0 0 0 0 0 0 0 2 0 0 0 2 2 2 2 0 0 2 0 0 2 0 0 2 2 0 0 2 0 0 0 0 2 2 2 0 0 0 0 0 0 0 2 2 0 0 0 0 0 2 2 0 0 0 0 0 0 0 2 2 0 0 

SCALARS geom_link_id int 1
LOOKUP_TABLE default
7 7 19 19 0 23 0 0 11 -1 8 18 0 -1 0 -1 0 0 0 0 20 0 0 0 6 6 9 9 -1 -1 24 0 0 22 0 0 8 8 0 0 21 -1 -1 -1 -1 17 15 15 -1 -1 -1 -1 -1 -1 -1 14 14 -1 -1 -1 -1 -1 16 16 -1 -1 -1 -1 -1 -1 -1 10 10 -1 -1 

