# vtk DataFile Version 3.0
Generated by GMDS VTK Writer

ASCII
DATASET UNSTRUCTURED_GRID
POINTS 24 float
0 0 0
0 10 0
10 10 0
10 0 0
0 0 10
0 10 10
10 10 10
10 0 10
0 4 0
0 4 10
10 4 10
10 4 0
0 0 4
10 0 4
10 4 4
0 4 4
10 10 4
0 10 4
0 6 0
10 6 0
10 6 4
0 6 4
10 6 10
0 6 10

CELLS 46 138
2 13 7
2 1 2
2 3 13
2 3 0
2 12 4
2 5 6
2 0 12
2 7 4
2 14 20
2 18 1
2 8 18
2 11 19
2 0 8
2 4 9
2 7 10
2 3 11
2 20 16
2 9 10
2 19 2
2 8 11
2 11 14
2 14 10
2 8 15
2 15 9
2 12 13
2 13 14
2 15 14
2 12 15
2 2 16
2 16 6
2 1 17
2 17 5
2 17 16
2 15 21
2 21 17
2 18 19
2 19 20
2 20 21
2 18 21
2 10 22
2 22 6
2 9 23
2 23 5
2 22 20
2 23 22
2 23 21

CELL_TYPES 46
3 
3 
3 
3 
3 
3 
3 
3 
3 
3 
3 
3 
3 
3 
3 
3 
3 
3 
3 
3 
3 
3 
3 
3 
3 
3 
3 
3 
3 
3 
3 
3 
3 
3 
3 
3 
3 
3 
3 
3 
3 
3 
3 
3 
3 
3 
POINT_DATA 24
SCALARS GMDS_ID int 1
LOOKUP_TABLE default
0 1 2 3 4 5 6 7 8 9 10 11 12 13 14 15 16 17 18 19 20 21 22 23 
SCALARS geom_link_dim int 1
LOOKUP_TABLE default
1 1 1 1 1 1 1 1 1 2 2 2 2 2 3 1 2 2 1 2 3 1 2 2 
SCALARS geom_link_id int 1
LOOKUP_TABLE default
12 11 15 16 10 9 13 14 2 8 13 12 19 7 8 1 6 9 4 12 8 3 13 8 


CELL_DATA 46
SCALARS GMDS_ID int 1
LOOKUP_TABLE default
0 1 2 3 4 5 6 7 8 9 10 11 12 14 16 18 20 21 22 23 24 25 26 27 28 29 30 31 32 33 34 35 37 39 40 41 42 43 44 45 46 47 48 49 50 51 

SCALARS geom_link_dim int 1
LOOKUP_TABLE default
2 2 2 2 2 2 2 2 0 2 0 0 2 2 0 0 0 0 0 0 0 0 2 0 0 0 0 0 2 2 2 2 0 2 0 0 0 0 2 0 0 2 2 0 0 0 

SCALARS geom_link_id int 1
LOOKUP_TABLE default
7 16 7 15 19 10 19 14 -1 23 -1 -1 11 8 0 0 -1 0 -1 0 0 0 20 0 0 0 0 0 6 6 9 9 0 24 -1 -1 -1 -1 22 -1 -1 8 8 -1 -1 -1 

