# vtk DataFile Version 3.0
Generated by GMDS VTK Writer

ASCII
DATASET UNSTRUCTURED_GRID
POINTS 36 float
0 0 0
0 10 0
10 10 0
10 0 0
0 0 10
0 10 10
10 10 10
10 0 10
0 4 0
0 4 10
10 4 10
10 4 0
0 0 4
10 0 4
10 4 4
0 4 4
10 10 4
0 10 4
0 6 0
10 6 0
10 6 4
0 6 4
10 6 10
0 6 10
2 4 0
2 4 4
2 6 4
2 6 0
2 0 0
2 0 4
2 4 10
2 0 10
2 10 4
2 10 0
2 6 10
2 10 10

CELLS 44 220
4 13 14 10 7 
4 3 11 14 13 
4 19 20 16 2 
4 27 26 20 19 
4 0 8 15 12 
4 12 15 9 4 
4 18 21 26 27 
4 25 26 20 14 
4 24 25 14 11 
4 8 15 25 24 
4 18 21 17 1 
4 10 14 20 22 
4 22 20 16 6 
4 23 21 17 5 
4 0 8 24 28 
4 28 24 11 3 
4 12 15 25 29 
4 29 25 14 13 
4 0 12 29 28 
4 28 29 13 3 
4 28 24 25 29 
4 9 15 25 30 
4 30 25 14 10 
4 4 9 30 31 
4 31 30 10 7 
4 4 12 29 31 
4 31 29 13 7 
4 29 25 30 31 
4 17 21 26 32 
4 32 26 20 16 
4 1 17 32 33 
4 33 32 16 2 
4 1 18 27 33 
4 33 27 19 2 
4 27 26 32 33 
4 21 23 34 26 
4 26 34 22 20 
4 30 34 22 10 
4 30 25 26 34 
4 5 17 32 35 
4 35 32 16 6 
4 5 23 34 35 
4 35 34 22 6 
4 34 26 32 35 

CELL_TYPES 44
9 
9 
9 
9 
9 
9 
9 
9 
9 
9 
9 
9 
9 
9 
9 
9 
9 
9 
9 
9 
9 
9 
9 
9 
9 
9 
9 
9 
9 
9 
9 
9 
9 
9 
9 
9 
9 
9 
9 
9 
9 
9 
9 
9 
POINT_DATA 36
SCALARS GMDS_ID int 1
LOOKUP_TABLE default
0 1 2 3 4 5 6 7 8 9 10 11 12 13 14 15 16 17 18 19 20 21 22 23 24 25 26 27 28 29 30 31 32 33 34 35 
SCALARS geom_link_dim int 1
LOOKUP_TABLE default
1 1 1 1 1 1 1 1 1 2 2 2 2 2 3 1 2 2 1 2 3 1 2 2 1 1 1 1 2 3 2 2 3 2 2 2 
SCALARS geom_link_id int 1
LOOKUP_TABLE default
12 11 15 16 10 9 13 14 2 8 13 12 19 7 8 1 6 9 4 12 8 3 13 8 6 5 7 8 15 3 8 14 7 16 8 10 


CELL_DATA 44
SCALARS GMDS_ID int 1
LOOKUP_TABLE default
0 1 2 3 4 5 6 7 9 10 11 12 13 15 16 17 18 19 20 21 22 23 24 25 26 27 28 29 30 31 32 33 34 35 36 37 38 40 41 42 43 44 45 46 

SCALARS geom_link_dim int 1
LOOKUP_TABLE default
0 0 0 0 0 0 0 0 0 0 0 0 0 0 0 0 0 0 0 0 0 0 0 0 0 0 0 0 0 0 0 0 0 0 0 0 0 0 0 0 0 0 0 0 

SCALARS geom_link_id int 1
LOOKUP_TABLE default
0 0 0 0 0 0 0 0 0 0 0 0 0 0 0 0 0 0 0 0 0 0 0 0 0 0 0 0 0 0 0 0 0 0 0 0 0 0 0 0 0 0 0 0 

