# vtk DataFile Version 3.0
Generated by GMDS VTK Writer

ASCII
DATASET UNSTRUCTURED_GRID
POINTS 36 float
0 0 0
0 10 0
10 10 0
10 0 0
0 0 10
0 10 10
10 10 10
10 0 10
0 4 0
0 4 10
10 4 10
10 4 0
2 0 0
2 0 10
2 4 10
2 4 0
2 10 10
2 10 0
0 0 4
0 4 4
2 4 4
2 0 4
10 4 4
10 0 4
0 10 4
2 10 4
10 10 4
0 6 4
2 6 4
2 6 10
0 6 10
0 6 0
2 6 0
10 6 0
10 6 4
10 6 10

CELLS 50 250
4 13 14 10 7 
4 4 9 14 13 
4 0 12 21 18 
4 15 20 28 32 
4 21 20 14 13 
4 31 32 17 1 
4 27 28 29 30 
4 12 15 20 21 
4 19 20 14 9 
4 30 27 24 5 
4 9 19 27 30 
4 8 15 20 19 
4 18 19 9 4 
4 0 8 19 18 
4 30 29 16 5 
4 9 14 29 30 
4 0 8 15 12 
4 12 15 11 3 
4 29 28 25 16 
4 14 20 28 29 
4 27 28 25 24 
4 19 20 28 27 
4 18 21 13 4 
4 18 19 20 21 
4 11 15 20 22 
4 22 20 14 10 
4 3 11 22 23 
4 23 22 10 7 
4 3 12 21 23 
4 23 21 13 7 
4 21 20 22 23 
4 1 17 25 24 
4 24 25 16 5 
4 2 17 25 26 
4 26 25 16 6 
4 32 28 25 17 
4 31 27 24 1 
4 31 32 28 27 
4 11 15 32 33 
4 33 32 17 2 
4 20 22 34 28 
4 28 34 26 25 
4 11 22 34 33 
4 33 34 26 2 
4 33 32 28 34 
4 10 14 29 35 
4 35 29 16 6 
4 10 22 34 35 
4 35 34 26 6 
4 34 28 29 35 

CELL_TYPES 50
9 
9 
9 
9 
9 
9 
9 
9 
9 
9 
9 
9 
9 
9 
9 
9 
9 
9 
9 
9 
9 
9 
9 
9 
9 
9 
9 
9 
9 
9 
9 
9 
9 
9 
9 
9 
9 
9 
9 
9 
9 
9 
9 
9 
9 
9 
9 
9 
9 
9 
POINT_DATA 36
SCALARS GMDS_ID int 1
LOOKUP_TABLE default
0 1 2 3 4 5 6 7 8 9 10 11 12 13 14 15 16 17 18 19 20 21 22 23 24 25 26 27 28 29 30 31 32 33 34 35 
SCALARS geom_link_dim int 1
LOOKUP_TABLE default
1 1 1 1 1 1 1 1 1 2 2 2 2 2 3 1 2 2 2 1 1 3 3 2 2 3 2 1 1 3 2 1 1 2 3 2 
SCALARS geom_link_id int 1
LOOKUP_TABLE default
12 11 15 16 10 9 13 14 2 8 13 12 15 14 6 6 10 16 19 1 5 3 8 7 9 7 6 3 7 6 8 4 8 12 8 13 


CELL_DATA 50
SCALARS GMDS_ID int 1
LOOKUP_TABLE default
0 1 2 3 4 5 7 8 9 10 11 12 13 14 15 16 17 18 19 22 23 26 27 28 29 30 31 32 33 34 35 40 41 45 46 48 50 51 52 53 54 55 56 57 58 59 60 61 62 63 

SCALARS geom_link_dim int 1
LOOKUP_TABLE default
3 3 3 3 4 3 4 4 4 3 3 3 3 3 3 3 3 3 4 4 4 3 3 4 4 4 3 3 3 3 4 3 3 3 3 4 3 3 3 3 4 4 3 3 4 3 3 3 3 4 

SCALARS geom_link_id int 1
LOOKUP_TABLE default
6 6 3 4 1 1 1 1 1 2 2 10 2 2 6 6 1 1 1 1 1 5 3 1 1 1 8 8 3 3 1 7 7 7 7 1 2 9 1 1 1 1 8 8 1 6 6 8 8 1 

