# vtk DataFile Version 3.0
Generated by GMDS VTK Writer

ASCII
DATASET UNSTRUCTURED_GRID
POINTS 24 float
0 0 0
0 10 0
10 10 0
10 0 0
0 0 10
0 10 10
10 10 10
10 0 10
0 4 0
0 4 10
10 4 10
10 4 0
0 0 4
10 0 4
10 4 4
0 4 4
10 10 4
0 10 4
0 6 0
10 6 0
10 6 4
0 6 4
10 6 10
0 6 10

CELLS 29 145
4 13 14 10 7 
4 3 11 14 13 
4 8 15 21 18 
4 12 13 7 4 
4 20 21 17 16 
4 0 3 13 12 
4 14 15 21 20 
4 19 20 16 2 
4 4 7 10 9 
4 11 14 20 19 
4 18 19 2 1 
4 0 3 11 8 
4 8 11 19 18 
4 8 11 14 15 
4 15 14 10 9 
4 0 8 15 12 
4 12 15 9 4 
4 12 13 14 15 
4 1 2 16 17 
4 17 16 6 5 
4 18 21 17 1 
4 18 19 20 21 
4 10 14 20 22 
4 22 20 16 6 
4 9 10 22 23 
4 23 22 6 5 
4 9 15 21 23 
4 23 21 17 5 
4 21 20 22 23 

CELL_TYPES 29
9 
9 
9 
9 
9 
9 
9 
9 
9 
9 
9 
9 
9 
9 
9 
9 
9 
9 
9 
9 
9 
9 
9 
9 
9 
9 
9 
9 
9 
POINT_DATA 24
SCALARS GMDS_ID int 1
LOOKUP_TABLE default
0 1 2 3 4 5 6 7 8 9 10 11 12 13 14 15 16 17 18 19 20 21 22 23 
SCALARS geom_link_dim_0 int 1
LOOKUP_TABLE default
0 0 0 0 0 0 0 0 0 0 0 0 0 0 0 0 0 0 0 0 0 0 0 0 
SCALARS geom_link_id_0 int 1
LOOKUP_TABLE default
0 0 0 0 0 0 0 0 0 0 0 0 0 0 0 0 0 0 0 0 0 0 0 0 


CELL_DATA 29
SCALARS GMDS_ID int 1
LOOKUP_TABLE default
0 1 2 3 4 5 6 7 8 10 11 12 14 15 16 17 18 19 22 23 27 28 29 30 31 32 33 34 35 

SCALARS geom_link_dim_0 int 1
LOOKUP_TABLE default
0 0 0 0 0 0 0 0 0 0 0 0 0 0 0 0 0 0 0 0 0 0 0 0 0 0 0 0 0 

SCALARS geom_link_id_0 int 1
LOOKUP_TABLE default
0 0 0 0 0 0 0 0 0 0 0 0 0 0 0 0 0 0 0 0 0 0 0 0 0 0 0 0 0 

