# vtk DataFile Version 3.0
Generated by GMDS VTK Writer

ASCII
DATASET UNSTRUCTURED_GRID
POINTS 40 float
0 0 0
0 10 0
10 10 0
10 0 0
0 0 2
0 10 2
10 10 2
10 0 2
2 10 0
2 0 0
2 0 2
2 10 2
10 4 0
10 4 2
2 4 2
2 4 0
0 4 2
0 4 0
3 4 0
3 4 2
3 0 2
3 0 0
3 10 0
3 10 2
2 9 0
2 9 2
0 9 2
0 9 0
10 9 0
10 9 2
3 9 2
3 9 0
1 4 0
1 4 2
1 0 2
1 0 0
1 9 0
1 9 2
1 10 0
1 10 2

CELLS 12 108
8 18 19 20 21 15 14 10 9 
8 12 13 7 3 18 19 20 21 
8 24 25 14 15 36 37 33 32 
8 32 33 34 35 17 16 4 0 
8 15 14 10 9 32 33 34 35 
8 2 6 23 22 28 29 30 31 
8 28 29 30 31 12 13 19 18 
8 22 23 11 8 31 30 25 24 
8 31 30 25 24 18 19 14 15 
8 36 37 33 32 27 26 16 17 
8 8 11 25 24 38 39 37 36 
8 38 39 37 36 1 5 26 27 

CELL_TYPES 12
12 
12 
12 
12 
12 
12 
12 
12 
12 
12 
12 
12 
POINT_DATA 40
SCALARS GMDS_ID int 1
LOOKUP_TABLE default
0 1 2 3 4 5 6 7 8 9 10 11 12 13 14 15 16 17 18 19 20 21 22 23 24 25 26 27 28 29 30 31 32 33 34 35 36 37 38 39 
SCALARS geom_link_dim int 1
LOOKUP_TABLE default
1 1 1 1 1 1 1 1 2 1 1 2 2 2 1 1 2 2 2 2 1 1 2 2 3 3 2 2 2 2 1 1 1 1 1 1 3 3 2 2 
SCALARS geom_link_id int 1
LOOKUP_TABLE default
26 28 31 32 25 27 29 30 8 6 5 14 11 16 7 8 20 21 12 19 9 10 8 14 5 1 20 21 11 16 11 12 4 3 1 2 5 1 8 14 


CELL_DATA 12
SCALARS GMDS_ID int 1
LOOKUP_TABLE default
1 2 4 6 7 8 9 10 11 12 13 14 

SCALARS is_in int 1
LOOKUP_TABLE default
1 0 1 1 0 1 1 1 1 1 1 1 

SCALARS geom_link_dim int 1
LOOKUP_TABLE default
0 0 0 0 0 0 0 0 0 0 0 0 

SCALARS geom_link_id int 1
LOOKUP_TABLE default
0 0 -1 -1 -1 0 0 0 0 -1 -1 -1 

