# vtk DataFile Version 3.0
Generated by GMDS VTK Writer

ASCII
DATASET UNSTRUCTURED_GRID
POINTS 80 float
0 0 0
0 10 0
10 10 0
10 0 0
0 0 2
0 10 2
10 10 2
10 0 2
2 10 0
2 0 0
2 0 2
2 10 2
10 4 0
10 4 2
2 4 2
2 4 0
0 4 2
0 4 0
3 4 0
3 4 2
3 0 2
3 0 0
3 10 0
3 10 2
2 9 0
2 9 2
0 9 2
0 9 0
10 9 0
10 9 2
3 9 2
3 9 0
1 4 0
1 4 2
1 0 2
1 0 0
1 9 0
1 9 2
1 10 0
1 10 2
5 4 0
5 4 2
5 0 2
5 0 0
5 10 0
5 10 2
5 9 2
5 9 0
8 4 0
8 4 2
8 0 2
8 0 0
8 10 0
8 10 2
8 9 2
8 9 0
8 6 0
8 6 2
5 6 2
5 6 0
10 6 0
10 6 2
2 6 0
2 6 2
1 6 2
1 6 0
3 6 0
3 6 2
0 6 2
0 6 0
6.5 4 0
6.5 4 2
6.5 0 2
6.5 0 0
6.5 6 0
6.5 6 2
6.5 9 2
6.5 9 0
6.5 10 0
6.5 10 2

CELLS 22 198
8 18 19 20 21 15 14 10 9 
8 2 6 29 28 52 53 54 55 
8 12 13 49 48 60 61 57 56 
8 74 75 76 77 59 58 46 47 
8 44 45 46 47 22 23 30 31 
8 32 33 34 35 17 16 4 0 
8 60 61 57 56 28 29 54 55 
8 12 13 7 3 48 49 50 51 
8 22 23 11 8 31 30 25 24 
8 56 57 54 55 74 75 76 77 
8 70 71 72 73 40 41 42 43 
8 8 11 25 24 38 39 37 36 
8 38 39 37 36 1 5 26 27 
8 24 25 37 36 62 63 64 65 
8 62 63 64 65 15 14 33 32 
8 31 30 25 24 66 67 63 62 
8 66 67 63 62 18 19 14 15 
8 36 37 26 27 65 64 68 69 
8 65 64 68 69 32 33 16 17 
8 70 71 75 74 40 41 58 59 
8 52 53 54 55 78 79 76 77 
8 78 79 76 77 44 45 46 47 

CELL_TYPES 22
12 
12 
12 
12 
12 
12 
12 
12 
12 
12 
12 
12 
12 
12 
12 
12 
12 
12 
12 
12 
12 
12 
POINT_DATA 80
SCALARS GMDS_ID int 1
LOOKUP_TABLE default
0 1 2 3 4 5 6 7 8 9 10 11 12 13 14 15 16 17 18 19 20 21 22 23 24 25 26 27 28 29 30 31 32 33 34 35 36 37 38 39 40 41 42 43 44 45 46 47 48 49 50 51 52 53 54 55 56 57 58 59 60 61 62 63 64 65 66 67 68 69 70 71 72 73 74 75 76 77 78 79 
SCALARS geom_link_dim int 1
LOOKUP_TABLE default
1 1 1 1 1 1 1 1 2 1 1 2 2 2 1 1 2 2 2 2 1 1 2 2 3 3 2 2 2 2 1 1 1 1 1 1 3 3 2 2 2 2 1 1 2 2 1 1 2 2 1 1 2 2 3 3 1 1 2 2 2 2 3 3 3 3 2 2 2 2 2 2 1 1 1 1 3 3 2 2 
SCALARS geom_link_id int 1
LOOKUP_TABLE default
26 28 31 32 25 27 29 30 8 6 5 14 11 16 7 8 20 21 12 19 9 10 8 14 5 1 20 21 11 16 11 12 4 3 1 2 5 1 8 14 18 7 13 14 8 14 15 16 10 13 21 22 8 14 1 5 24 23 7 18 11 16 5 1 1 5 12 19 20 21 9 15 17 18 20 19 1 5 8 14 


CELL_DATA 22
SCALARS GMDS_ID int 1
LOOKUP_TABLE default
1 2 3 4 5 6 7 9 10 11 12 13 14 18 19 20 21 22 23 25 26 27 

SCALARS is_in int 1
LOOKUP_TABLE default
1 1 1 1 1 1 1 1 1 1 1 1 1 1 1 1 1 1 1 1 1 1 

SCALARS geom_link_dim int 1
LOOKUP_TABLE default
4 4 4 4 4 4 4 4 4 4 4 4 4 4 4 4 4 4 4 4 4 4 

SCALARS geom_link_id int 1
LOOKUP_TABLE default
1 1 1 1 1 1 1 1 1 1 1 1 1 1 1 1 1 1 1 1 1 1 

