# vtk DataFile Version 3.0
Generated by GMDS VTK Writer

ASCII
DATASET UNSTRUCTURED_GRID
POINTS 48 float
0 0 0
0 10 0
10 10 0
10 0 0
0 0 2
0 10 2
10 10 2
10 0 2
0 4 0
0 4 2
10 4 2
10 4 0
3 0 0
3 0 2
3 4 2
3 4 0
3 10 2
3 10 0
10 9 0
10 9 2
3 9 2
3 9 0
0 9 2
0 9 0
8 0 0
8 0 2
8 4 2
8 4 0
8 9 0
8 9 2
8 10 0
8 10 2
1 9 2
1 9 0
1 4 0
1 4 2
1 10 2
1 10 0
1 0 0
1 0 2
2 9 2
2 9 0
2 4 0
2 4 2
2 10 2
2 10 0
2 0 0
2 0 2

CELLS 15 135
8 32 33 34 35 22 23 8 9 
8 20 21 15 14 40 41 42 43 
8 24 25 26 27 12 13 14 15 
8 3 7 10 11 24 25 26 27 
8 40 41 42 43 32 33 34 35 
8 16 17 21 20 44 45 41 40 
8 18 19 10 11 28 29 26 27 
8 28 29 26 27 21 20 14 15 
8 2 6 19 18 30 31 29 28 
8 30 31 29 28 17 16 20 21 
8 36 37 33 32 5 1 23 22 
8 38 39 35 34 0 4 9 8 
8 44 45 41 40 36 37 33 32 
8 12 13 14 15 46 47 43 42 
8 46 47 43 42 38 39 35 34 

CELL_TYPES 15
12 
12 
12 
12 
12 
12 
12 
12 
12 
12 
12 
12 
12 
12 
12 
POINT_DATA 48
SCALARS GMDS_ID int 1
LOOKUP_TABLE default
0 1 2 3 4 5 6 7 8 9 10 11 12 13 14 15 16 17 18 19 20 21 22 23 24 25 26 27 28 29 30 31 32 33 34 35 36 37 38 39 40 41 42 43 44 45 46 47 
SCALARS geom_link_dim int 1
LOOKUP_TABLE default
1 1 1 1 1 1 1 1 2 2 2 2 1 1 2 2 2 2 2 2 1 1 2 2 1 1 2 2 3 3 2 2 3 3 1 1 2 2 1 1 3 3 1 1 2 2 1 1 
SCALARS geom_link_id int 1
LOOKUP_TABLE default
26 28 31 32 25 27 29 30 21 20 16 11 10 9 19 12 14 8 11 16 11 12 20 21 22 21 13 10 5 1 8 14 1 5 4 3 14 8 2 1 1 5 8 7 14 8 6 5 


CELL_DATA 15
SCALARS GMDS_ID int 1
LOOKUP_TABLE default
1 3 4 5 6 7 8 9 10 11 12 14 15 16 17 

SCALARS is_in int 1
LOOKUP_TABLE default
1 1 1 1 1 1 1 1 1 1 1 1 1 1 0 

SCALARS geom_link_dim int 1
LOOKUP_TABLE default
0 0 0 0 0 0 0 0 0 0 0 0 0 0 0 

SCALARS geom_link_id int 1
LOOKUP_TABLE default
0 -1 0 0 -1 -1 0 0 0 0 0 0 -1 -1 -1 

