# vtk DataFile Version 3.0
Generated by GMDS VTK Writer

ASCII
DATASET UNSTRUCTURED_GRID
POINTS 48 float
0 0 0
0 10 0
10 10 0
10 0 0
0 0 2
0 10 2
10 10 2
10 0 2
1 10 0
1 0 0
1 0 2
1 10 2
10 4 0
10 4 2
1 4 2
1 4 0
0 4 2
0 4 0
2 4 0
2 4 2
2 0 2
2 0 0
2 10 0
2 10 2
3 4 0
3 4 2
3 0 2
3 0 0
3 10 0
3 10 2
1 9 0
1 9 2
0 9 2
0 9 0
2 9 0
2 9 2
10 9 0
10 9 2
3 9 2
3 9 0
5 4 0
5 4 2
5 0 2
5 0 0
5 10 0
5 10 2
5 9 2
5 9 0

CELLS 15 135
8 18 19 20 21 15 14 10 9 
8 30 31 32 33 15 14 16 17 
8 24 25 26 27 18 19 20 21 
8 44 45 46 47 28 29 38 39 
8 15 14 16 17 9 10 4 0 
8 8 11 5 1 30 31 32 33 
8 2 6 37 36 44 45 46 47 
8 40 41 42 43 24 25 26 27 
8 12 13 7 3 40 41 42 43 
8 22 23 11 8 34 35 31 30 
8 34 35 31 30 18 19 14 15 
8 28 29 23 22 39 38 35 34 
8 39 38 35 34 24 25 19 18 
8 36 37 13 12 47 46 41 40 
8 47 46 41 40 39 38 25 24 

CELL_TYPES 15
12 
12 
12 
12 
12 
12 
12 
12 
12 
12 
12 
12 
12 
12 
12 
POINT_DATA 48
SCALARS GMDS_ID int 1
LOOKUP_TABLE default
0 1 2 3 4 5 6 7 8 9 10 11 12 13 14 15 16 17 18 19 20 21 22 23 24 25 26 27 28 29 30 31 32 33 34 35 36 37 38 39 40 41 42 43 44 45 46 47 
SCALARS geom_link_dim int 1
LOOKUP_TABLE default
1 1 1 1 1 1 1 1 2 1 1 2 2 2 1 1 2 2 1 1 1 1 2 2 2 2 1 1 2 2 3 3 2 2 3 3 2 2 1 1 2 2 1 1 2 2 1 1 
SCALARS geom_link_id int 1
LOOKUP_TABLE default
26 28 31 32 25 27 29 30 8 2 1 14 11 16 3 4 20 21 8 7 5 6 8 14 12 19 9 10 8 14 5 1 20 21 5 1 11 16 11 12 18 7 13 14 8 14 15 16 


CELL_DATA 15
SCALARS GMDS_ID int 1
LOOKUP_TABLE default
1 2 3 4 5 6 7 8 9 10 11 14 15 16 17 

SCALARS is_in int 1
LOOKUP_TABLE default
0 1 1 1 1 1 1 0 0 1 1 1 1 1 0 

SCALARS geom_link_dim int 1
LOOKUP_TABLE default
0 0 0 0 0 0 0 0 0 0 0 0 0 0 0 

SCALARS geom_link_id int 1
LOOKUP_TABLE default
0 0 0 -1 0 0 -1 -1 -1 0 0 0 0 -1 -1 

