# vtk DataFile Version 3.0
Generated by GMDS VTK Writer

ASCII
DATASET UNSTRUCTURED_GRID
POINTS 80 float
0 0 0
0 10 0
10 10 0
10 0 0
0 0 2
0 10 2
10 10 2
10 0 2
1 10 0
1 0 0
1 0 2
1 10 2
10 4 0
10 4 2
1 4 2
1 4 0
0 4 2
0 4 0
2 4 0
2 4 2
2 0 2
2 0 0
2 10 0
2 10 2
3 4 0
3 4 2
3 0 2
3 0 0
3 10 0
3 10 2
1 9 0
1 9 2
0 9 2
0 9 0
2 9 0
2 9 2
10 9 0
10 9 2
3 9 2
3 9 0
5 4 0
5 4 2
5 0 2
5 0 0
5 10 0
5 10 2
5 9 2
5 9 0
6.5 4 0
6.5 4 2
6.5 0 2
6.5 0 0
6.5 10 0
6.5 10 2
6.5 9 2
6.5 9 0
2 6 0
2 6 2
1 6 2
1 6 0
3 6 0
3 6 2
0 6 2
0 6 0
5 6 0
5 6 2
6.5 6 0
6.5 6 2
10 6 0
10 6 2
8 4 0
8 4 2
8 0 2
8 0 0
8 10 0
8 10 2
8 9 2
8 9 0
8 6 2
8 6 0

CELLS 28 252
8 18 19 20 21 15 14 10 9 
8 74 75 76 77 52 53 54 55 
8 24 25 26 27 18 19 20 21 
8 44 45 46 47 28 29 38 39 
8 15 14 16 17 9 10 4 0 
8 8 11 5 1 30 31 32 33 
8 56 57 58 59 34 35 31 30 
8 40 41 42 43 24 25 26 27 
8 24 25 19 18 60 61 57 56 
8 22 23 11 8 34 35 31 30 
8 70 71 78 79 48 49 67 66 
8 48 49 50 51 40 41 42 43 
8 28 29 23 22 39 38 35 34 
8 12 13 69 68 70 71 78 79 
8 18 19 14 15 56 57 58 59 
8 2 6 37 36 74 75 76 77 
8 52 53 54 55 44 45 46 47 
8 12 13 7 3 70 71 72 73 
8 70 71 72 73 48 49 50 51 
8 60 61 57 56 39 38 35 34 
8 15 14 16 17 59 58 62 63 
8 59 58 62 63 30 31 32 33 
8 40 41 25 24 64 65 61 60 
8 64 65 61 60 47 46 38 39 
8 48 49 41 40 66 67 65 64 
8 66 67 65 64 55 54 46 47 
8 68 69 37 36 79 78 76 77 
8 79 78 76 77 66 67 54 55 

CELL_TYPES 28
12 
12 
12 
12 
12 
12 
12 
12 
12 
12 
12 
12 
12 
12 
12 
12 
12 
12 
12 
12 
12 
12 
12 
12 
12 
12 
12 
12 
POINT_DATA 80
SCALARS GMDS_ID int 1
LOOKUP_TABLE default
0 1 2 3 4 5 6 7 8 9 10 11 12 13 14 15 16 17 18 19 20 21 22 23 24 25 26 27 28 29 30 31 32 33 34 35 36 37 38 39 40 41 42 43 44 45 46 47 48 49 50 51 52 53 54 55 56 57 58 59 60 61 62 63 64 65 66 67 68 69 70 71 72 73 74 75 76 77 78 79 
SCALARS geom_link_dim int 1
LOOKUP_TABLE default
1 1 1 1 1 1 1 1 2 1 1 2 2 2 1 1 2 2 1 1 1 1 2 2 2 2 1 1 2 2 3 3 2 2 3 3 2 2 1 1 2 2 1 1 2 2 1 1 2 2 1 1 2 2 3 3 3 3 3 3 2 2 2 2 2 2 1 1 2 2 2 2 1 1 2 2 3 3 1 1 
SCALARS geom_link_id int 1
LOOKUP_TABLE default
26 28 31 32 25 27 29 30 8 2 1 14 11 16 3 4 20 21 8 7 5 6 8 14 12 19 9 10 8 14 5 1 20 21 5 1 11 16 11 12 18 7 13 14 8 14 15 16 9 15 17 18 8 14 1 5 5 1 1 5 12 19 20 21 18 7 20 19 11 16 10 13 21 22 8 14 1 5 23 24 


CELL_DATA 28
SCALARS GMDS_ID int 1
LOOKUP_TABLE default
1 2 3 4 5 6 7 8 9 10 11 12 14 15 16 17 18 19 20 21 22 23 24 25 26 27 30 31 

SCALARS is_in int 1
LOOKUP_TABLE default
0 1 1 1 1 1 1 0 1 1 0 1 1 1 1 1 1 1 0 1 1 1 0 0 1 1 1 1 

SCALARS geom_link_dim int 1
LOOKUP_TABLE default
0 0 0 0 0 0 0 0 0 0 0 0 0 0 0 0 0 0 0 0 0 0 0 0 0 0 0 0 

SCALARS geom_link_id int 1
LOOKUP_TABLE default
0 -1 0 0 0 0 0 0 0 0 -1 0 0 -1 0 -1 0 -1 -1 0 0 0 0 0 0 0 -1 -1 

