# vtk DataFile Version 3.0
Generated by GMDS VTK Writer

ASCII
DATASET UNSTRUCTURED_GRID
POINTS 32 float
0 0 0
0 10 0
10 10 0
10 0 0
0 0 2
0 10 2
10 10 2
10 0 2
0 4 0
0 4 2
10 4 2
10 4 0
3 0 0
3 0 2
3 4 2
3 4 0
3 10 2
3 10 0
10 9 0
10 9 2
3 9 2
3 9 0
0 9 2
0 9 0
8 0 0
8 0 2
8 4 2
8 4 0
8 9 0
8 9 2
8 10 0
8 10 2

CELLS 9 81
8 12 13 14 15 0 4 9 8 
8 24 25 26 27 12 13 14 15 
8 3 7 10 11 24 25 26 27 
8 17 16 5 1 21 20 22 23 
8 21 20 22 23 15 14 9 8 
8 18 19 10 11 28 29 26 27 
8 28 29 26 27 21 20 14 15 
8 2 6 19 18 30 31 29 28 
8 30 31 29 28 17 16 20 21 

CELL_TYPES 9
12 
12 
12 
12 
12 
12 
12 
12 
12 
POINT_DATA 32
SCALARS GMDS_ID int 1
LOOKUP_TABLE default
0 1 2 3 4 5 6 7 8 9 10 11 12 13 14 15 16 17 18 19 20 21 22 23 24 25 26 27 28 29 30 31 
SCALARS geom_link_dim int 1
LOOKUP_TABLE default
1 1 1 1 1 1 1 1 2 2 2 2 1 1 2 2 2 2 2 2 1 1 2 2 1 1 2 2 3 3 2 2 
SCALARS geom_link_id int 1
LOOKUP_TABLE default
26 28 31 32 25 27 29 30 21 20 16 11 10 9 19 12 14 8 11 16 11 12 20 21 22 21 13 10 5 1 8 14 


CELL_DATA 9
SCALARS GMDS_ID int 1
LOOKUP_TABLE default
3 4 5 6 7 8 9 10 11 

SCALARS is_in int 1
LOOKUP_TABLE default
0 1 1 1 1 1 1 1 1 

SCALARS geom_link_dim int 1
LOOKUP_TABLE default
0 0 0 0 0 0 0 0 0 

SCALARS geom_link_id int 1
LOOKUP_TABLE default
0 -1 -1 0 0 -1 -1 -1 -1 

