# vtk DataFile Version 3.0
Generated by GMDS VTK Writer

ASCII
DATASET UNSTRUCTURED_GRID
POINTS 80 float
0 0 0
0 10 0
10 10 0
10 0 0
0 0 2
0 10 2
10 10 2
10 0 2
0 4 0
0 4 2
10 4 2
10 4 0
3 0 0
3 0 2
3 4 2
3 4 0
3 10 2
3 10 0
10 9 0
10 9 2
3 9 2
3 9 0
0 9 2
0 9 0
8 0 0
8 0 2
8 4 2
8 4 0
8 9 0
8 9 2
8 10 0
8 10 2
1 9 2
1 9 0
1 4 0
1 4 2
1 10 2
1 10 0
1 0 0
1 0 2
2 9 2
2 9 0
2 4 0
2 4 2
2 10 2
2 10 0
2 0 0
2 0 2
6.5 0 0
6.5 0 2
6.5 4 2
6.5 4 0
6.5 9 0
6.5 9 2
6.5 10 0
6.5 10 2
1 6 2
1 6 0
0 6 0
0 6 2
10 6 2
10 6 0
8 6 0
8 6 2
2 6 2
2 6 0
6.5 6 2
6.5 6 0
3 6 0
3 6 2
5 0 0
5 0 2
5 4 2
5 4 0
5 10 0
5 10 2
5 9 2
5 9 0
5 6 0
5 6 2

CELLS 22 198
8 54 55 53 52 74 75 76 77 
8 74 75 76 77 17 16 20 21 
8 60 61 62 63 19 18 28 29 
8 3 7 10 11 24 25 26 27 
8 16 17 21 20 44 45 41 40 
8 66 67 52 53 79 78 77 76 
8 10 11 27 26 60 61 62 63 
8 2 6 19 18 30 31 29 28 
8 56 57 58 59 32 33 23 22 
8 36 37 33 32 5 1 23 22 
8 48 49 50 51 70 71 72 73 
8 38 39 35 34 0 4 9 8 
8 44 45 41 40 36 37 33 32 
8 12 13 14 15 46 47 43 42 
8 35 34 8 9 56 57 58 59 
8 50 51 67 66 72 73 78 79 
8 30 31 29 28 54 55 53 52 
8 43 42 34 35 64 65 57 56 
8 64 65 57 56 40 41 33 32 
8 14 15 42 43 69 68 65 64 
8 69 68 65 64 20 21 41 40 
8 63 62 67 66 29 28 52 53 

CELL_TYPES 22
12 
12 
12 
12 
12 
12 
12 
12 
12 
12 
12 
12 
12 
12 
12 
12 
12 
12 
12 
12 
12 
12 
POINT_DATA 80
SCALARS GMDS_ID int 1
LOOKUP_TABLE default
0 1 2 3 4 5 6 7 8 9 10 11 12 13 14 15 16 17 18 19 20 21 22 23 24 25 26 27 28 29 30 31 32 33 34 35 36 37 38 39 40 41 42 43 44 45 46 47 48 49 50 51 52 53 54 55 56 57 58 59 60 61 62 63 64 65 66 67 68 69 70 71 72 73 74 75 76 77 78 79 
SCALARS geom_link_dim int 1
LOOKUP_TABLE default
1 1 1 1 1 1 1 1 2 2 2 2 1 1 2 2 2 2 2 2 1 1 2 2 1 1 2 2 3 3 2 2 3 3 1 1 2 2 1 1 3 3 1 1 2 2 1 1 1 1 2 2 3 3 2 2 3 3 2 2 2 2 1 1 3 3 1 1 2 2 1 1 2 2 2 2 1 1 2 2 
SCALARS geom_link_id int 1
LOOKUP_TABLE default
26 28 31 32 25 27 29 30 21 20 16 11 10 9 19 12 14 8 11 16 11 12 20 21 22 21 13 10 5 1 8 14 1 5 4 3 14 8 2 1 1 5 8 7 14 8 6 5 18 17 15 9 5 1 8 14 1 5 21 20 16 11 24 23 1 5 19 20 12 19 14 13 7 18 8 14 15 16 18 7 


CELL_DATA 22
SCALARS GMDS_ID int 1
LOOKUP_TABLE default
2 3 4 5 7 8 9 10 11 12 13 14 15 16 17 18 19 21 22 25 26 28 

SCALARS is_in int 1
LOOKUP_TABLE default
1 1 1 1 1 1 1 1 1 1 1 1 1 1 1 1 1 1 1 1 1 1 

SCALARS geom_link_dim int 1
LOOKUP_TABLE default
4 4 4 4 4 4 4 4 4 4 4 4 4 4 4 4 4 4 4 4 4 4 

SCALARS geom_link_id int 1
LOOKUP_TABLE default
1 1 1 1 1 1 1 1 1 1 1 1 1 1 1 1 1 1 1 1 1 1 

