# vtk DataFile Version 3.0
Generated by GMDS VTK Writer

ASCII
DATASET UNSTRUCTURED_GRID
POINTS 80 float
0 0 0
0 10 0
10 10 0
10 0 0
0 0 2
0 10 2
10 10 2
10 0 2
0 4 0
0 4 2
10 4 2
10 4 0
2 0 0
2 0 2
2 4 2
2 4 0
2 10 2
2 10 0
5 0 0
5 0 2
5 4 2
5 4 0
5 10 2
5 10 0
1 0 0
1 0 2
1 4 2
1 4 0
1 10 2
1 10 0
10 9 0
10 9 2
5 9 2
5 9 0
2 9 2
2 9 0
1 9 0
1 9 2
0 9 0
0 9 2
3 9 2
3 9 0
3 4 0
3 4 2
3 10 2
3 10 0
3 0 0
3 0 2
5 6 2
5 6 0
3 6 0
3 6 2
2 6 0
2 6 2
10 6 0
10 6 2
1 6 0
1 6 2
0 6 0
0 6 2
8 0 0
8 0 2
8 4 2
8 4 0
8 10 0
8 10 2
8 9 2
8 9 0
8 6 2
8 6 0
6.5 9 0
6.5 9 2
6.5 6 2
6.5 6 0
6.5 10 0
6.5 10 2
6.5 0 0
6.5 0 2
6.5 4 2
6.5 4 0

CELLS 22 198
8 24 25 26 27 0 4 9 8 
8 3 7 10 11 60 61 62 63 
8 74 75 71 70 23 22 32 33 
8 64 65 66 67 74 75 71 70 
8 44 45 41 40 16 17 35 34 
8 22 23 33 32 44 45 41 40 
8 54 55 10 11 69 68 62 63 
8 2 6 31 30 64 65 66 67 
8 40 41 35 34 51 50 52 53 
8 16 17 29 28 34 35 36 37 
8 30 31 55 54 67 66 68 69 
8 28 29 1 5 37 36 38 39 
8 46 47 43 42 12 13 14 15 
8 51 50 52 53 43 42 15 14 
8 70 71 72 73 33 32 48 49 
8 67 66 68 69 70 71 72 73 
8 34 35 36 37 53 52 56 57 
8 53 52 56 57 14 15 27 26 
8 37 36 38 39 57 56 58 59 
8 57 56 58 59 26 27 8 9 
8 76 77 78 79 18 19 20 21 
8 73 72 78 79 49 48 20 21 

CELL_TYPES 22
12 
12 
12 
12 
12 
12 
12 
12 
12 
12 
12 
12 
12 
12 
12 
12 
12 
12 
12 
12 
12 
12 
POINT_DATA 80
SCALARS GMDS_ID int 1
LOOKUP_TABLE default
0 1 2 3 4 5 6 7 8 9 10 11 12 13 14 15 16 17 18 19 20 21 22 23 24 25 26 27 28 29 30 31 32 33 34 35 36 37 38 39 40 41 42 43 44 45 46 47 48 49 50 51 52 53 54 55 56 57 58 59 60 61 62 63 64 65 66 67 68 69 70 71 72 73 74 75 76 77 78 79 
SCALARS geom_link_dim int 1
LOOKUP_TABLE default
1 1 1 1 1 1 1 1 2 2 2 2 1 1 1 1 2 2 1 1 2 2 2 2 1 1 1 1 2 2 2 2 1 1 3 3 3 3 2 2 1 1 2 2 2 2 1 1 2 2 2 2 3 3 2 2 3 3 2 2 1 1 2 2 2 2 3 3 1 1 3 3 1 1 2 2 1 1 2 2 
SCALARS geom_link_id int 1
LOOKUP_TABLE default
26 28 31 32 25 27 29 30 21 20 16 11 6 5 7 8 14 8 14 13 7 18 14 8 2 1 3 4 14 8 11 16 15 16 1 5 5 1 21 20 11 12 12 19 14 8 10 9 7 18 12 19 5 1 11 16 5 1 21 20 22 21 13 10 8 14 1 5 23 24 5 1 19 20 8 14 18 17 15 9 


CELL_DATA 22
SCALARS GMDS_ID int 1
LOOKUP_TABLE default
0 1 2 5 7 8 9 10 11 12 13 14 16 17 18 19 20 21 22 23 25 27 

SCALARS is_in int 1
LOOKUP_TABLE default
1 1 1 1 1 1 1 1 1 1 1 1 1 1 1 1 1 1 1 1 1 1 

SCALARS geom_link_dim int 1
LOOKUP_TABLE default
4 4 4 4 4 4 4 4 4 4 4 4 4 4 4 4 4 4 4 4 4 4 

SCALARS geom_link_id int 1
LOOKUP_TABLE default
1 1 1 1 1 1 1 1 1 1 1 1 1 1 1 1 1 1 1 1 1 1 

