# vtk DataFile Version 3.0
Generated by GMDS VTK Writer

ASCII
DATASET UNSTRUCTURED_GRID
POINTS 24 float
0 0 0
0 10 0
10 10 0
10 0 0
0 0 2
0 10 2
10 10 2
10 0 2
0 4 0
0 4 2
10 4 2
10 4 0
2 0 0
2 0 2
2 4 2
2 4 0
2 10 2
2 10 0
5 0 0
5 0 2
5 4 2
5 4 0
5 10 2
5 10 0

CELLS 6 54
8 18 19 20 21 12 13 14 15 
8 3 7 10 11 18 19 20 21 
8 12 13 14 15 0 4 9 8 
8 15 14 16 17 8 9 5 1 
8 11 10 6 2 21 20 22 23 
8 21 20 22 23 15 14 16 17 

CELL_TYPES 6
12 
12 
12 
12 
12 
12 
POINT_DATA 24
SCALARS GMDS_ID int 1
LOOKUP_TABLE default
0 1 2 3 4 5 6 7 8 9 10 11 12 13 14 15 16 17 18 19 20 21 22 23 
SCALARS geom_link_dim int 1
LOOKUP_TABLE default
1 1 1 1 1 1 1 1 2 2 2 2 1 1 1 1 2 2 1 1 2 2 2 2 
SCALARS geom_link_id int 1
LOOKUP_TABLE default
26 28 31 32 25 27 29 30 21 20 16 11 6 5 7 8 14 8 14 13 7 18 14 8 


CELL_DATA 6
SCALARS GMDS_ID int 1
LOOKUP_TABLE default
1 2 3 5 6 7 

SCALARS is_in int 1
LOOKUP_TABLE default
0 0 1 1 1 0 

SCALARS geom_link_dim int 1
LOOKUP_TABLE default
0 0 0 0 0 0 

SCALARS geom_link_id int 1
LOOKUP_TABLE default
-1 -1 0 0 -1 -1 

