# vtk DataFile Version 3.0
Generated by GMDS VTK Writer

ASCII
DATASET UNSTRUCTURED_GRID
POINTS 48 float
0 0 0
0 10 0
10 10 0
10 0 0
0 0 2
0 10 2
10 10 2
10 0 2
1 10 0
1 0 0
1 0 2
1 10 2
10 4 0
10 4 2
1 4 2
1 4 0
0 4 2
0 4 0
2 4 0
2 4 2
2 0 2
2 0 0
2 10 0
2 10 2
3 4 0
3 4 2
3 0 2
3 0 0
3 10 0
3 10 2
1 9 0
1 9 2
0 9 2
0 9 0
2 9 0
2 9 2
10 9 0
10 9 2
3 9 2
3 9 0
5 4 0
5 4 2
5 0 2
5 0 0
5 10 0
5 10 2
5 9 2
5 9 0

CELLS 100 300
2 18 15
2 3 43
2 31 14
2 13 7
2 5 32
2 40 41
2 11 31
2 12 3
2 0 4
2 1 5
2 2 6
2 3 7
2 8 1
2 26 20
2 9 0
2 25 19
2 10 4
2 24 18
2 11 5
2 20 10
2 9 10
2 19 14
2 8 11
2 41 25
2 14 10
2 13 41
2 15 9
2 12 13
2 15 14
2 12 40
2 16 4
2 40 24
2 17 0
2 16 14
2 17 16
2 17 15
2 32 16
2 21 9
2 18 19
2 20 19
2 21 20
2 21 18
2 8 30
2 22 8
2 30 15
2 23 11
2 22 23
2 7 42
2 42 26
2 27 21
2 24 25
2 26 25
2 27 26
2 27 24
2 28 22
2 29 23
2 28 29
2 43 27
2 42 41
2 1 33
2 33 17
2 30 31
2 32 31
2 33 32
2 33 30
2 22 34
2 34 18
2 23 35
2 35 19
2 34 35
2 31 35
2 30 34
2 2 36
2 36 12
2 6 37
2 37 13
2 29 38
2 38 25
2 28 39
2 39 24
2 36 37
2 39 38
2 35 38
2 34 39
2 43 42
2 43 40
2 2 44
2 44 28
2 6 45
2 45 29
2 37 46
2 46 38
2 36 47
2 47 39
2 44 45
2 45 46
2 47 46
2 44 47
2 41 46
2 40 47

CELL_TYPES 100
3 
3 
3 
3 
3 
3 
3 
3 
3 
3 
3 
3 
3 
3 
3 
3 
3 
3 
3 
3 
3 
3 
3 
3 
3 
3 
3 
3 
3 
3 
3 
3 
3 
3 
3 
3 
3 
3 
3 
3 
3 
3 
3 
3 
3 
3 
3 
3 
3 
3 
3 
3 
3 
3 
3 
3 
3 
3 
3 
3 
3 
3 
3 
3 
3 
3 
3 
3 
3 
3 
3 
3 
3 
3 
3 
3 
3 
3 
3 
3 
3 
3 
3 
3 
3 
3 
3 
3 
3 
3 
3 
3 
3 
3 
3 
3 
3 
3 
3 
3 
POINT_DATA 48
SCALARS GMDS_ID int 1
LOOKUP_TABLE default
0 1 2 3 4 5 6 7 8 9 10 11 12 13 14 15 16 17 18 19 20 21 22 23 24 25 26 27 28 29 30 31 32 33 34 35 36 37 38 39 40 41 42 43 44 45 46 47 
SCALARS geom_link_dim int 1
LOOKUP_TABLE default
1 1 1 1 1 1 1 1 2 1 1 2 2 2 1 1 2 2 1 1 1 1 2 2 2 2 1 1 2 2 3 3 2 2 3 3 2 2 1 1 2 2 1 1 2 2 1 1 
SCALARS geom_link_id int 1
LOOKUP_TABLE default
26 28 31 32 25 27 29 30 8 2 1 14 11 16 3 4 20 21 8 7 5 6 8 14 12 19 9 10 8 14 5 1 20 21 5 1 11 16 11 12 18 7 13 14 8 14 15 16 


CELL_DATA 100
SCALARS GMDS_ID int 1
LOOKUP_TABLE default
0 1 2 3 4 5 6 7 8 9 10 11 13 14 15 16 17 18 19 20 21 22 23 24 25 26 27 28 30 32 33 34 35 36 37 38 39 40 41 42 43 44 45 46 47 48 49 50 51 53 54 55 56 57 59 61 62 63 64 65 66 67 68 69 70 71 72 73 74 75 76 77 78 79 80 81 82 83 84 85 86 88 90 91 92 93 94 95 96 97 98 99 100 101 102 103 104 105 106 107 

SCALARS geom_link_dim int 1
LOOKUP_TABLE default
2 0 0 0 0 0 0 2 2 2 2 2 2 2 2 0 2 0 0 0 2 2 0 0 2 0 2 0 0 0 0 0 0 0 0 0 0 0 0 2 2 2 0 2 0 0 0 0 0 2 0 2 2 2 2 0 0 0 2 0 0 0 0 0 0 0 0 0 0 0 0 0 2 2 0 0 0 2 0 2 0 0 0 0 2 2 2 2 0 0 0 2 0 2 0 0 0 0 2 2 

SCALARS geom_link_id int 1
LOOKUP_TABLE default
41 -1 0 0 0 -1 0 11 48 35 36 34 8 45 42 0 43 0 0 0 24 40 0 -1 31 -1 22 0 0 -1 0 -1 0 0 0 0 0 0 0 23 25 17 0 8 0 0 0 -1 -1 46 0 19 47 12 8 0 0 -1 7 0 0 0 0 0 0 0 0 0 0 0 0 0 11 11 0 0 0 19 0 12 0 0 0 0 30 18 8 8 -1 -1 -1 39 -1 44 -1 -1 -1 -1 7 18 

