# vtk DataFile Version 3.0
Generated by GMDS VTK Writer

ASCII
DATASET UNSTRUCTURED_GRID
POINTS 70 float
0 0 0
0 10 0
10 10 0
10 0 0
0 0 2
0 10 2
10 10 2
10 0 2
0 4 0
0 4 2
10 4 2
10 4 0
3 0 0
3 0 2
3 4 2
3 4 0
3 10 2
3 10 0
10 9 0
10 9 2
3 9 2
3 9 0
0 9 2
0 9 0
8 0 0
8 0 2
8 4 2
8 4 0
8 9 0
8 9 2
8 10 0
8 10 2
1 9 2
1 9 0
1 4 0
1 4 2
1 10 2
1 10 0
1 0 0
1 0 2
2 9 2
2 9 0
2 4 0
2 4 2
2 10 2
2 10 0
2 0 0
2 0 2
6.5 0 0
6.5 0 2
6.5 4 2
6.5 4 0
6.5 9 0
6.5 9 2
6.5 10 0
6.5 10 2
1 6 2
1 6 0
0 6 0
0 6 2
10 6 2
10 6 0
8 6 0
8 6 2
2 6 2
2 6 0
6.5 6 2
6.5 6 0
3 6 0
3 6 2

CELLS 149 447
2 14 43
2 2 18
2 26 50
2 43 35
2 35 9
2 16 20
2 0 4
2 1 5
2 2 6
2 3 7
2 0 8
2 58 57
2 4 9
2 3 24
2 7 10
2 7 25
2 3 11
2 10 26
2 8 9
2 6 19
2 11 10
2 50 14
2 15 42
2 34 8
2 42 34
2 12 13
2 13 14
2 14 15
2 12 15
2 49 13
2 20 40
2 32 22
2 40 32
2 57 56
2 17 16
2 9 59
2 17 21
2 18 19
2 33 23
2 20 21
2 25 49
2 5 22
2 1 23
2 41 33
2 23 22
2 21 41
2 11 27
2 59 22
2 24 25
2 25 26
2 26 27
2 24 27
2 18 28
2 8 58
2 19 29
2 58 23
2 28 29
2 2 30
2 57 33
2 6 31
2 34 57
2 30 31
2 31 29
2 30 28
2 32 33
2 35 34
2 24 48
2 36 5
2 48 12
2 37 1
2 36 37
2 37 33
2 36 32
2 51 15
2 38 0
2 27 51
2 39 4
2 38 39
2 39 35
2 38 34
2 40 41
2 43 42
2 16 44
2 44 36
2 17 45
2 45 37
2 44 45
2 45 41
2 44 40
2 12 46
2 35 56
2 13 47
2 56 32
2 46 47
2 47 43
2 46 42
2 48 49
2 49 50
2 50 51
2 48 51
2 28 52
2 52 21
2 29 53
2 53 20
2 52 53
2 30 54
2 54 17
2 31 55
2 55 16
2 54 55
2 53 55
2 52 54
2 58 59
2 59 56
2 10 60
2 60 19
2 11 61
2 61 18
2 27 62
2 62 28
2 26 63
2 63 29
2 60 61
2 61 62
2 63 62
2 60 63
2 43 64
2 64 40
2 42 65
2 65 41
2 65 64
2 57 65
2 56 64
2 50 66
2 66 53
2 51 67
2 67 52
2 15 68
2 68 21
2 14 69
2 69 20
2 66 67
2 68 67
2 69 68
2 69 66
2 68 65
2 69 64
2 62 67
2 63 66

CELL_TYPES 149
3 
3 
3 
3 
3 
3 
3 
3 
3 
3 
3 
3 
3 
3 
3 
3 
3 
3 
3 
3 
3 
3 
3 
3 
3 
3 
3 
3 
3 
3 
3 
3 
3 
3 
3 
3 
3 
3 
3 
3 
3 
3 
3 
3 
3 
3 
3 
3 
3 
3 
3 
3 
3 
3 
3 
3 
3 
3 
3 
3 
3 
3 
3 
3 
3 
3 
3 
3 
3 
3 
3 
3 
3 
3 
3 
3 
3 
3 
3 
3 
3 
3 
3 
3 
3 
3 
3 
3 
3 
3 
3 
3 
3 
3 
3 
3 
3 
3 
3 
3 
3 
3 
3 
3 
3 
3 
3 
3 
3 
3 
3 
3 
3 
3 
3 
3 
3 
3 
3 
3 
3 
3 
3 
3 
3 
3 
3 
3 
3 
3 
3 
3 
3 
3 
3 
3 
3 
3 
3 
3 
3 
3 
3 
3 
3 
3 
3 
3 
3 
POINT_DATA 70
SCALARS GMDS_ID int 1
LOOKUP_TABLE default
0 1 2 3 4 5 6 7 8 9 10 11 12 13 14 15 16 17 18 19 20 21 22 23 24 25 26 27 28 29 30 31 32 33 34 35 36 37 38 39 40 41 42 43 44 45 46 47 48 49 50 51 52 53 54 55 56 57 58 59 60 61 62 63 64 65 66 67 68 69 
SCALARS geom_link_dim int 1
LOOKUP_TABLE default
1 1 1 1 1 1 1 1 2 2 2 2 1 1 2 2 2 2 2 2 1 1 2 2 1 1 2 2 3 3 2 2 3 3 1 1 2 2 1 1 3 3 1 1 2 2 1 1 1 1 2 2 3 3 2 2 3 3 2 2 2 2 1 1 3 3 1 1 2 2 
SCALARS geom_link_id int 1
LOOKUP_TABLE default
26 28 31 32 25 27 29 30 21 20 16 11 10 9 19 12 14 8 11 16 11 12 20 21 22 21 13 10 5 1 8 14 1 5 4 3 14 8 2 1 1 5 8 7 14 8 6 5 18 17 15 9 5 1 8 14 1 5 21 20 16 11 24 23 1 5 19 20 12 19 


CELL_DATA 149
SCALARS GMDS_ID int 1
LOOKUP_TABLE default
0 1 2 4 6 7 8 9 10 11 12 13 14 15 16 17 18 19 20 21 22 24 25 26 27 28 29 30 31 32 33 34 35 36 37 38 39 41 42 43 44 45 47 49 50 51 52 53 54 55 56 57 58 59 60 61 62 65 66 67 68 69 70 71 72 74 76 77 78 79 80 81 82 83 84 85 86 87 88 89 90 92 94 95 96 97 98 99 100 101 102 103 104 105 106 107 108 109 110 111 112 113 114 115 116 119 120 121 122 123 124 125 126 127 128 129 130 131 132 133 134 135 136 137 138 139 140 141 142 143 144 145 146 147 148 149 150 151 152 153 154 155 156 157 158 159 160 161 162 

SCALARS geom_link_dim int 1
LOOKUP_TABLE default
0 2 0 2 0 0 2 2 2 2 2 0 2 2 2 2 2 0 0 2 0 0 0 0 2 2 2 0 2 0 0 0 0 0 0 2 0 0 0 0 0 2 2 0 0 0 0 2 2 2 0 2 0 2 0 2 0 2 0 2 0 0 0 0 0 2 0 2 0 2 0 0 0 0 2 0 2 2 2 2 0 2 2 2 2 2 0 0 0 2 0 2 0 2 2 2 2 2 0 2 0 0 0 0 0 2 2 2 2 0 0 0 0 0 2 2 2 2 2 0 2 0 0 0 0 0 0 0 0 0 0 0 0 2 0 2 0 2 2 2 2 0 0 0 0 0 0 2 2 

SCALARS geom_link_id int 1
LOOKUP_TABLE default
0 11 0 40 0 0 48 35 36 34 21 -1 20 27 16 33 11 0 0 16 0 0 0 0 41 47 19 0 12 0 0 0 0 -1 0 20 0 0 0 0 0 20 21 0 0 0 0 20 26 13 0 10 0 21 0 21 0 8 -1 14 -1 0 0 0 0 3 0 14 0 8 0 0 0 0 42 0 43 24 31 22 0 6 14 14 8 8 0 0 0 46 -1 45 -1 25 23 17 32 15 0 9 0 0 0 0 0 8 8 14 14 0 0 0 -1 -1 16 16 11 11 10 -1 13 -1 -1 -1 -1 -1 -1 -1 -1 -1 -1 -1 -1 15 -1 9 -1 12 12 19 19 -1 -1 -1 -1 -1 -1 28 29 

