# vtk DataFile Version 3.0
Generated by GMDS VTK Writer

ASCII
DATASET UNSTRUCTURED_GRID
POINTS 48 float
0 0 0
0 10 0
10 10 0
10 0 0
0 0 2
0 10 2
10 10 2
10 0 2
0 4 0
0 4 2
10 4 2
10 4 0
2 0 0
2 0 2
2 4 2
2 4 0
2 10 2
2 10 0
5 0 0
5 0 2
5 4 2
5 4 0
5 10 2
5 10 0
1 0 0
1 0 2
1 4 2
1 4 0
1 10 2
1 10 0
10 9 0
10 9 2
5 9 2
5 9 0
2 9 2
2 9 0
1 9 0
1 9 2
0 9 0
0 9 2
3 9 2
3 9 0
3 4 0
3 4 2
3 10 2
3 10 0
3 0 0
3 0 2

CELLS 98 294
2 22 32
2 3 18
2 14 26
2 32 20
2 26 9
2 10 20
2 0 4
2 1 5
2 2 6
2 3 7
2 0 8
2 41 35
2 4 9
2 33 41
2 7 10
2 40 41
2 3 11
2 43 42
2 8 9
2 7 19
2 11 10
2 40 34
2 6 31
2 25 4
2 31 10
2 12 13
2 13 14
2 14 15
2 12 15
2 24 0
2 30 11
2 32 40
2 2 30
2 20 43
2 17 16
2 43 14
2 11 21
2 18 19
2 19 20
2 20 21
2 18 21
2 6 22
2 2 23
2 42 41
2 23 22
2 43 40
2 15 27
2 27 8
2 24 25
2 25 26
2 26 27
2 24 27
2 16 28
2 28 5
2 17 29
2 29 1
2 42 15
2 28 29
2 21 42
2 23 33
2 33 21
2 30 31
2 31 32
2 32 33
2 30 33
2 16 34
2 34 14
2 17 35
2 35 15
2 34 35
2 29 36
2 36 27
2 28 37
2 37 26
2 35 36
2 37 36
2 34 37
2 1 38
2 38 8
2 5 39
2 39 9
2 38 36
2 38 39
2 39 37
2 22 44
2 44 16
2 23 45
2 45 17
2 44 45
2 45 41
2 44 40
2 18 46
2 46 12
2 19 47
2 47 13
2 46 47
2 47 43
2 46 42

CELL_TYPES 98
3 
3 
3 
3 
3 
3 
3 
3 
3 
3 
3 
3 
3 
3 
3 
3 
3 
3 
3 
3 
3 
3 
3 
3 
3 
3 
3 
3 
3 
3 
3 
3 
3 
3 
3 
3 
3 
3 
3 
3 
3 
3 
3 
3 
3 
3 
3 
3 
3 
3 
3 
3 
3 
3 
3 
3 
3 
3 
3 
3 
3 
3 
3 
3 
3 
3 
3 
3 
3 
3 
3 
3 
3 
3 
3 
3 
3 
3 
3 
3 
3 
3 
3 
3 
3 
3 
3 
3 
3 
3 
3 
3 
3 
3 
3 
3 
3 
3 
POINT_DATA 48
SCALARS GMDS_ID int 1
LOOKUP_TABLE default
0 1 2 3 4 5 6 7 8 9 10 11 12 13 14 15 16 17 18 19 20 21 22 23 24 25 26 27 28 29 30 31 32 33 34 35 36 37 38 39 40 41 42 43 44 45 46 47 
SCALARS geom_link_dim int 1
LOOKUP_TABLE default
1 1 1 1 1 1 1 1 2 2 2 2 1 1 1 1 2 2 1 1 2 2 2 2 1 1 1 1 2 2 2 2 1 1 3 3 3 3 2 2 1 1 2 2 2 2 1 1 
SCALARS geom_link_id int 1
LOOKUP_TABLE default
26 28 31 32 25 27 29 30 21 20 16 11 6 5 7 8 14 8 14 13 7 18 14 8 2 1 3 4 14 8 11 16 15 16 1 5 5 1 21 20 11 12 12 19 14 8 10 9 


CELL_DATA 98
SCALARS GMDS_ID int 1
LOOKUP_TABLE default
0 1 2 4 6 7 8 9 10 11 12 13 14 15 16 17 18 19 20 21 22 24 25 26 27 28 29 30 31 32 33 34 35 36 37 38 39 41 42 43 44 45 47 49 50 51 52 53 54 55 56 57 58 59 60 61 62 63 64 65 66 67 68 69 70 71 72 73 74 76 78 79 80 81 82 83 84 85 86 87 88 89 90 91 92 93 94 95 96 97 98 99 100 101 102 103 104 105 

SCALARS geom_link_dim int 1
LOOKUP_TABLE default
0 0 2 2 0 0 2 2 2 2 2 0 2 2 2 0 2 0 0 0 0 0 2 2 2 2 2 2 2 2 2 2 2 0 0 0 0 2 2 0 2 2 2 2 0 2 2 0 2 2 2 2 2 2 2 2 0 0 0 0 2 0 0 0 0 0 0 0 0 0 0 0 0 0 0 0 0 2 2 2 2 0 0 0 2 2 2 2 0 0 0 0 2 0 2 2 2 2 

SCALARS geom_link_id int 1
LOOKUP_TABLE default
0 0 40 7 0 0 48 35 36 34 21 -1 20 44 16 -1 11 -1 0 0 0 -1 16 43 16 25 23 6 17 42 11 39 11 -1 0 -1 0 30 7 0 18 14 8 12 0 19 41 0 24 31 3 22 14 14 8 8 -1 0 -1 0 18 0 0 0 0 0 0 0 0 0 0 0 0 0 0 0 0 21 21 20 20 0 0 0 14 14 8 8 -1 -1 -1 -1 46 -1 45 47 19 12 

