# vtk DataFile Version 3.0
Generated by GMDS VTK Writer

ASCII
DATASET UNSTRUCTURED_GRID
POINTS 80 float
0 0 0
0 10 0
10 10 0
10 0 0
0 0 2
0 10 2
10 10 2
10 0 2
0 4 0
0 4 2
10 4 2
10 4 0
2 0 0
2 0 2
2 4 2
2 4 0
2 10 2
2 10 0
5 0 0
5 0 2
5 4 2
5 4 0
5 10 2
5 10 0
1 0 0
1 0 2
1 4 2
1 4 0
1 10 2
1 10 0
10 9 0
10 9 2
5 9 2
5 9 0
2 9 2
2 9 0
1 9 0
1 9 2
0 9 0
0 9 2
3 9 2
3 9 0
3 4 0
3 4 2
3 10 2
3 10 0
3 0 0
3 0 2
5 6 2
5 6 0
3 6 0
3 6 2
2 6 0
2 6 2
10 6 0
10 6 2
1 6 0
1 6 2
0 6 0
0 6 2
8 0 0
8 0 2
8 4 2
8 4 0
8 10 0
8 10 2
8 9 2
8 9 0
8 6 2
8 6 0
6.5 9 0
6.5 9 2
6.5 6 2
6.5 6 0
6.5 10 0
6.5 10 2
6.5 0 0
6.5 0 2
6.5 4 2
6.5 4 0

CELLS 162 486
2 22 32
2 71 72
2 14 26
2 41 50
2 51 43
2 26 9
2 69 73
2 0 4
2 1 5
2 2 6
2 3 7
2 0 8
2 41 35
2 4 9
2 33 41
2 7 10
2 40 41
2 3 11
2 43 42
2 8 9
2 71 70
2 11 10
2 40 51
2 40 34
2 6 31
2 25 4
2 6 65
2 12 13
2 13 14
2 14 15
2 12 15
2 24 0
2 31 66
2 32 40
2 2 30
2 10 62
2 17 16
2 43 14
2 73 49
2 50 42
2 18 19
2 19 20
2 20 21
2 18 21
2 70 33
2 32 48
2 67 70
2 48 20
2 23 22
2 2 64
2 15 27
2 27 8
2 24 25
2 25 26
2 26 27
2 24 27
2 16 28
2 28 5
2 17 29
2 29 1
2 42 15
2 28 29
2 7 61
2 23 33
2 30 31
2 66 71
2 32 33
2 71 32
2 16 34
2 60 63
2 17 35
2 62 63
2 49 21
2 34 35
2 33 49
2 29 36
2 61 62
2 28 37
2 60 61
2 35 36
2 37 36
2 34 37
2 1 38
2 11 63
2 5 39
2 38 36
2 38 39
2 39 37
2 22 44
2 44 16
2 23 45
2 45 17
2 44 45
2 45 41
2 44 40
2 46 12
2 47 13
2 46 47
2 47 43
2 46 42
2 48 49
2 51 50
2 3 60
2 35 52
2 52 15
2 34 53
2 53 14
2 52 50
2 53 52
2 53 51
2 30 54
2 54 11
2 31 55
2 55 10
2 54 55
2 72 48
2 68 72
2 36 56
2 56 27
2 37 57
2 57 26
2 52 56
2 56 57
2 53 57
2 38 58
2 58 8
2 39 59
2 59 9
2 56 58
2 58 59
2 57 59
2 30 67
2 64 65
2 65 66
2 67 66
2 64 67
2 55 68
2 54 69
2 66 68
2 69 68
2 67 69
2 62 68
2 63 69
2 72 73
2 70 73
2 64 74
2 74 23
2 65 75
2 75 22
2 74 75
2 75 71
2 74 70
2 76 18
2 77 19
2 78 20
2 79 21
2 76 77
2 77 78
2 78 79
2 76 79
2 78 72
2 79 73

CELL_TYPES 162
3 
3 
3 
3 
3 
3 
3 
3 
3 
3 
3 
3 
3 
3 
3 
3 
3 
3 
3 
3 
3 
3 
3 
3 
3 
3 
3 
3 
3 
3 
3 
3 
3 
3 
3 
3 
3 
3 
3 
3 
3 
3 
3 
3 
3 
3 
3 
3 
3 
3 
3 
3 
3 
3 
3 
3 
3 
3 
3 
3 
3 
3 
3 
3 
3 
3 
3 
3 
3 
3 
3 
3 
3 
3 
3 
3 
3 
3 
3 
3 
3 
3 
3 
3 
3 
3 
3 
3 
3 
3 
3 
3 
3 
3 
3 
3 
3 
3 
3 
3 
3 
3 
3 
3 
3 
3 
3 
3 
3 
3 
3 
3 
3 
3 
3 
3 
3 
3 
3 
3 
3 
3 
3 
3 
3 
3 
3 
3 
3 
3 
3 
3 
3 
3 
3 
3 
3 
3 
3 
3 
3 
3 
3 
3 
3 
3 
3 
3 
3 
3 
3 
3 
3 
3 
3 
3 
3 
3 
3 
3 
3 
3 
POINT_DATA 80
SCALARS GMDS_ID int 1
LOOKUP_TABLE default
0 1 2 3 4 5 6 7 8 9 10 11 12 13 14 15 16 17 18 19 20 21 22 23 24 25 26 27 28 29 30 31 32 33 34 35 36 37 38 39 40 41 42 43 44 45 46 47 48 49 50 51 52 53 54 55 56 57 58 59 60 61 62 63 64 65 66 67 68 69 70 71 72 73 74 75 76 77 78 79 
SCALARS geom_link_dim int 1
LOOKUP_TABLE default
1 1 1 1 1 1 1 1 2 2 2 2 1 1 1 1 2 2 1 1 2 2 2 2 1 1 1 1 2 2 2 2 1 1 3 3 3 3 2 2 1 1 2 2 2 2 1 1 2 2 2 2 3 3 2 2 3 3 2 2 1 1 2 2 2 2 3 3 1 1 3 3 1 1 2 2 1 1 2 2 
SCALARS geom_link_id int 1
LOOKUP_TABLE default
26 28 31 32 25 27 29 30 21 20 16 11 6 5 7 8 14 8 14 13 7 18 14 8 2 1 3 4 14 8 11 16 15 16 1 5 5 1 21 20 11 12 12 19 14 8 10 9 7 18 12 19 5 1 11 16 5 1 21 20 22 21 13 10 8 14 1 5 23 24 5 1 19 20 8 14 18 17 15 9 


CELL_DATA 162
SCALARS GMDS_ID int 1
LOOKUP_TABLE default
0 1 2 3 5 6 7 8 9 10 11 12 13 14 15 16 17 18 19 20 21 22 23 24 25 26 27 28 29 30 31 32 33 34 35 36 37 38 39 40 41 42 43 44 45 46 47 48 50 51 52 53 54 55 56 57 58 59 60 61 62 63 64 65 67 68 69 70 71 72 73 74 75 76 77 78 79 80 81 82 83 84 85 86 87 89 90 91 92 93 94 95 96 97 98 100 102 103 104 105 106 108 109 110 111 112 113 114 115 116 117 118 119 120 121 122 123 124 125 126 127 128 129 130 131 132 133 134 135 136 137 138 140 141 142 143 144 146 148 149 150 151 152 153 154 155 156 157 158 159 160 161 163 165 167 169 170 171 172 173 174 175 

SCALARS geom_link_dim int 1
LOOKUP_TABLE default
3 3 2 2 2 3 2 2 2 2 2 2 3 2 2 2 2 2 3 3 4 3 2 3 2 2 2 2 2 2 2 2 3 2 2 3 3 3 3 2 2 2 3 2 3 2 3 2 3 2 2 3 2 2 2 2 2 2 2 2 3 3 2 3 3 3 2 3 3 2 3 3 2 4 2 3 2 3 2 3 4 3 2 3 2 3 3 3 2 2 2 2 3 3 3 2 2 2 2 2 3 3 2 3 3 3 3 3 4 3 2 2 2 2 3 3 2 3 3 3 3 3 4 3 2 2 2 2 3 3 3 3 3 3 3 3 3 3 3 2 3 2 2 2 3 2 2 2 2 3 3 3 2 2 3 3 2 2 3 2 2 2 

SCALARS geom_link_id int 1
LOOKUP_TABLE default
1 1 40 12 19 1 28 48 35 36 34 21 5 20 44 16 5 11 13 2 1 6 19 1 16 43 14 25 23 6 17 42 1 39 11 1 7 1 5 12 30 7 3 18 5 7 5 7 7 8 41 2 24 31 3 22 14 14 8 8 5 7 33 5 8 1 4 1 1 10 5 6 18 1 18 5 13 1 26 5 1 1 21 5 20 5 2 1 14 14 8 8 7 5 1 46 45 47 19 12 3 13 27 5 5 1 1 5 1 1 11 11 16 16 8 1 29 5 5 1 1 5 1 1 21 21 20 20 5 2 1 5 7 1 5 5 1 5 1 1 5 13 10 2 5 8 8 14 14 7 1 5 37 38 1 4 32 15 4 9 15 9 

