# vtk DataFile Version 3.0
Generated by GMDS VTK Writer

ASCII
DATASET UNSTRUCTURED_GRID
POINTS 80 float
0 0 0
0 10 0
10 10 0
10 0 0
0 0 2
0 10 2
10 10 2
10 0 2
2 10 0
2 0 0
2 0 2
2 10 2
10 4 0
10 4 2
2 4 2
2 4 0
0 4 2
0 4 0
3 4 0
3 4 2
3 0 2
3 0 0
3 10 0
3 10 2
2 9 0
2 9 2
0 9 2
0 9 0
10 9 0
10 9 2
3 9 2
3 9 0
1 4 0
1 4 2
1 0 2
1 0 0
1 9 0
1 9 2
1 10 0
1 10 2
5 4 0
5 4 2
5 0 2
5 0 0
5 10 0
5 10 2
5 9 2
5 9 0
8 4 0
8 4 2
8 0 2
8 0 0
8 10 0
8 10 2
8 9 2
8 9 0
8 6 0
8 6 2
5 6 2
5 6 0
10 6 0
10 6 2
2 6 0
2 6 2
1 6 2
1 6 0
3 6 0
3 6 2
0 6 2
0 6 0
6.5 4 0
6.5 4 2
6.5 0 2
6.5 0 0
6.5 6 0
6.5 6 2
6.5 9 2
6.5 9 0
6.5 10 0
6.5 10 2

CELLS 162 486
2 18 15
2 13 7
2 3 51
2 40 59
2 7 50
2 12 3
2 0 4
2 1 5
2 2 6
2 3 7
2 8 24
2 71 41
2 42 41
2 70 71
2 70 40
2 71 72
2 41 58
2 20 10
2 9 10
2 19 14
2 8 11
2 14 33
2 14 10
2 33 16
2 15 9
2 12 13
2 11 25
2 15 14
2 5 26
2 32 17
2 16 4
2 15 32
2 17 0
2 59 47
2 17 16
2 40 41
2 21 9
2 18 19
2 20 19
2 21 20
2 21 18
2 22 8
2 12 48
2 23 11
2 22 23
2 34 4
2 35 0
2 1 27
2 72 42
2 24 25
2 27 26
2 58 46
2 2 28
2 24 62
2 6 29
2 62 15
2 23 30
2 72 73
2 22 31
2 70 73
2 28 29
2 31 30
2 13 49
2 25 30
2 24 31
2 33 32
2 34 33
2 35 34
2 35 32
2 24 36
2 36 27
2 25 37
2 37 26
2 36 37
2 73 43
2 8 38
2 38 1
2 11 39
2 39 5
2 38 39
2 39 37
2 38 36
2 43 42
2 43 40
2 56 55
2 44 22
2 48 56
2 45 23
2 57 54
2 46 30
2 49 57
2 47 31
2 44 45
2 45 46
2 47 46
2 44 47
2 63 14
2 64 33
2 48 49
2 50 49
2 51 50
2 51 48
2 2 52
2 6 53
2 29 54
2 28 55
2 52 53
2 53 54
2 55 54
2 52 55
2 25 63
2 37 64
2 56 57
2 59 58
2 12 60
2 60 28
2 13 61
2 61 29
2 60 61
2 61 57
2 60 56
2 36 65
2 65 32
2 62 63
2 63 64
2 65 64
2 62 65
2 31 66
2 66 18
2 30 67
2 67 19
2 67 66
2 63 67
2 62 66
2 26 68
2 68 16
2 27 69
2 69 17
2 68 64
2 68 69
2 69 65
2 56 74
2 74 59
2 57 75
2 75 58
2 54 76
2 76 46
2 55 77
2 77 47
2 74 75
2 76 75
2 76 77
2 77 74
2 71 75
2 70 74
2 52 78
2 78 44
2 53 79
2 79 45
2 78 79
2 79 76
2 78 77

CELL_TYPES 162
3 
3 
3 
3 
3 
3 
3 
3 
3 
3 
3 
3 
3 
3 
3 
3 
3 
3 
3 
3 
3 
3 
3 
3 
3 
3 
3 
3 
3 
3 
3 
3 
3 
3 
3 
3 
3 
3 
3 
3 
3 
3 
3 
3 
3 
3 
3 
3 
3 
3 
3 
3 
3 
3 
3 
3 
3 
3 
3 
3 
3 
3 
3 
3 
3 
3 
3 
3 
3 
3 
3 
3 
3 
3 
3 
3 
3 
3 
3 
3 
3 
3 
3 
3 
3 
3 
3 
3 
3 
3 
3 
3 
3 
3 
3 
3 
3 
3 
3 
3 
3 
3 
3 
3 
3 
3 
3 
3 
3 
3 
3 
3 
3 
3 
3 
3 
3 
3 
3 
3 
3 
3 
3 
3 
3 
3 
3 
3 
3 
3 
3 
3 
3 
3 
3 
3 
3 
3 
3 
3 
3 
3 
3 
3 
3 
3 
3 
3 
3 
3 
3 
3 
3 
3 
3 
3 
3 
3 
3 
3 
3 
3 
POINT_DATA 80
SCALARS GMDS_ID int 1
LOOKUP_TABLE default
0 1 2 3 4 5 6 7 8 9 10 11 12 13 14 15 16 17 18 19 20 21 22 23 24 25 26 27 28 29 30 31 32 33 34 35 36 37 38 39 40 41 42 43 44 45 46 47 48 49 50 51 52 53 54 55 56 57 58 59 60 61 62 63 64 65 66 67 68 69 70 71 72 73 74 75 76 77 78 79 
SCALARS geom_link_dim int 1
LOOKUP_TABLE default
1 1 1 1 1 1 1 1 2 1 1 2 2 2 1 1 2 2 2 2 1 1 2 2 3 3 2 2 2 2 1 1 1 1 1 1 3 3 2 2 2 2 1 1 2 2 1 1 2 2 1 1 2 2 3 3 1 1 2 2 2 2 3 3 3 3 2 2 2 2 2 2 1 1 1 1 3 3 2 2 
SCALARS geom_link_id int 1
LOOKUP_TABLE default
26 28 31 32 25 27 29 30 8 6 5 14 11 16 7 8 20 21 12 19 9 10 8 14 5 1 20 21 11 16 11 12 4 3 1 2 5 1 8 14 18 7 13 14 8 14 15 16 10 13 21 22 8 14 1 5 24 23 7 18 11 16 5 1 1 5 12 19 20 21 9 15 17 18 20 19 1 5 8 14 


CELL_DATA 162
SCALARS GMDS_ID int 1
LOOKUP_TABLE default
0 3 4 5 6 7 8 9 10 11 12 13 15 16 17 18 19 20 21 22 23 24 25 26 27 28 29 30 31 32 33 34 35 36 37 38 40 41 42 43 44 46 47 48 49 50 51 52 53 54 56 57 58 59 60 61 62 63 64 65 66 68 69 70 71 72 73 74 75 76 77 78 79 80 81 83 84 85 86 87 88 89 90 91 92 93 94 95 96 97 98 99 100 101 102 103 104 105 106 107 108 109 110 112 114 116 118 119 120 121 122 123 124 126 128 129 130 131 132 133 134 135 136 137 138 139 140 141 142 143 144 145 146 147 148 149 150 151 152 153 154 155 156 157 158 159 160 161 162 163 164 165 166 167 168 169 170 171 172 173 174 175 

SCALARS geom_link_dim int 1
LOOKUP_TABLE default
3 2 2 2 2 2 2 2 2 2 3 3 2 3 3 2 2 2 2 3 3 2 2 3 2 3 3 2 2 3 2 2 2 2 3 3 2 3 2 2 2 2 3 2 3 2 2 2 2 4 3 2 2 3 2 3 3 2 3 2 3 2 3 3 3 2 2 2 2 3 3 3 3 4 2 2 2 2 2 3 3 3 2 2 3 2 2 2 3 2 2 2 3 3 2 3 3 3 3 2 2 2 2 2 3 3 3 3 4 3 3 3 2 3 2 2 2 2 3 3 3 3 3 4 3 4 3 2 2 2 2 3 3 3 2 2 2 2 3 3 3 2 3 2 3 3 3 3 3 2 3 4 3 2 2 2 2 2 2 3 3 3 

SCALARS geom_link_id int 1
LOOKUP_TABLE default
5 16 27 18 33 11 48 35 36 34 5 1 7 4 5 15 7 45 25 1 7 40 23 1 17 8 1 6 20 5 20 41 21 18 2 3 46 13 19 47 12 8 5 14 7 43 42 21 38 1 2 7 11 5 16 5 1 32 5 9 8 5 1 1 5 3 31 24 22 5 5 1 1 1 37 8 8 14 14 7 1 5 30 18 5 8 10 14 1 39 13 44 7 1 4 5 1 1 6 13 26 10 8 14 1 5 7 1 1 5 1 1 1 3 11 11 16 16 8 1 5 5 5 1 1 1 5 12 12 19 19 13 1 5 20 20 21 21 1 2 5 28 5 29 1 1 1 5 5 2 1 1 5 15 9 8 8 14 14 7 1 5 

