# vtk DataFile Version 3.0
Generated by GMDS VTK Writer

ASCII
DATASET UNSTRUCTURED_GRID
POINTS 32 float
0 0 0
0 10 0
10 10 0
10 0 0
0 0 2
0 10 2
10 10 2
10 0 2
0 4 0
0 4 2
10 4 2
10 4 0
3 0 0
3 0 2
3 4 2
3 4 0
3 10 2
3 10 0
10 9 0
10 9 2
3 9 2
3 9 0
0 9 2
0 9 0
8 0 0
8 0 2
8 4 2
8 4 0
8 9 0
8 9 2
8 10 0
8 10 2

CELLS 64 192
2 13 4
2 2 18
2 20 14
2 12 0
2 18 11
2 16 20
2 0 4
2 1 5
2 2 6
2 3 7
2 0 8
2 24 12
2 4 9
2 3 24
2 7 10
2 7 25
2 3 11
2 10 26
2 8 9
2 6 19
2 11 10
2 19 10
2 14 9
2 15 8
2 12 13
2 13 14
2 14 15
2 12 15
2 16 5
2 17 1
2 25 13
2 17 16
2 26 14
2 17 21
2 21 15
2 18 19
2 20 21
2 5 22
2 22 9
2 1 23
2 23 8
2 22 20
2 23 22
2 23 21
2 11 27
2 27 15
2 24 25
2 25 26
2 26 27
2 24 27
2 18 28
2 28 21
2 19 29
2 29 20
2 28 29
2 26 29
2 27 28
2 2 30
2 30 17
2 6 31
2 31 16
2 30 31
2 31 29
2 30 28

CELL_TYPES 64
3 
3 
3 
3 
3 
3 
3 
3 
3 
3 
3 
3 
3 
3 
3 
3 
3 
3 
3 
3 
3 
3 
3 
3 
3 
3 
3 
3 
3 
3 
3 
3 
3 
3 
3 
3 
3 
3 
3 
3 
3 
3 
3 
3 
3 
3 
3 
3 
3 
3 
3 
3 
3 
3 
3 
3 
3 
3 
3 
3 
3 
3 
3 
3 
POINT_DATA 32
SCALARS GMDS_ID int 1
LOOKUP_TABLE default
0 1 2 3 4 5 6 7 8 9 10 11 12 13 14 15 16 17 18 19 20 21 22 23 24 25 26 27 28 29 30 31 
SCALARS geom_link_dim int 1
LOOKUP_TABLE default
1 1 1 1 1 1 1 1 2 2 2 2 1 1 2 2 2 2 2 2 1 1 2 2 1 1 2 2 3 3 2 2 
SCALARS geom_link_id int 1
LOOKUP_TABLE default
26 28 31 32 25 27 29 30 21 20 16 11 10 9 19 12 14 8 11 16 11 12 20 21 22 21 13 10 5 1 8 14 


CELL_DATA 64
SCALARS GMDS_ID int 1
LOOKUP_TABLE default
0 1 3 4 5 7 8 9 10 11 12 13 14 15 16 17 18 19 20 21 22 23 25 27 28 29 30 31 33 35 36 37 38 39 40 41 43 45 46 47 48 49 50 51 52 53 54 55 56 57 58 59 60 61 62 63 64 65 66 67 68 69 70 71 

SCALARS geom_link_dim int 1
LOOKUP_TABLE default
0 2 2 0 2 0 2 2 2 2 2 0 2 2 2 2 2 0 0 2 0 2 0 0 2 2 0 2 2 2 0 0 0 0 2 0 0 2 2 2 2 0 0 0 0 0 2 0 0 0 0 0 0 0 0 0 0 2 2 2 2 0 0 0 

SCALARS geom_link_id int 1
LOOKUP_TABLE default
0 11 19 0 11 0 48 35 36 34 21 -1 20 27 16 33 11 -1 0 16 0 16 0 0 47 19 0 12 14 8 -1 0 -1 0 12 0 0 20 20 21 21 0 0 0 -1 -1 26 -1 -1 -1 -1 -1 -1 -1 -1 -1 -1 8 8 14 14 -1 -1 -1 

