# vtk DataFile Version 3.0
Generated by GMDS VTK Writer

ASCII
DATASET UNSTRUCTURED_GRID
POINTS 80 float
0 0 0
0 10 0
10 10 0
10 0 0
0 0 2
0 10 2
10 10 2
10 0 2
1 10 0
1 0 0
1 0 2
1 10 2
10 4 0
10 4 2
1 4 2
1 4 0
0 4 2
0 4 0
2 4 0
2 4 2
2 0 2
2 0 0
2 10 0
2 10 2
3 4 0
3 4 2
3 0 2
3 0 0
3 10 0
3 10 2
1 9 0
1 9 2
0 9 2
0 9 0
2 9 0
2 9 2
10 9 0
10 9 2
3 9 2
3 9 0
5 4 0
5 4 2
5 0 2
5 0 0
5 10 0
5 10 2
5 9 2
5 9 0
6.5 4 0
6.5 4 2
6.5 0 2
6.5 0 0
6.5 10 0
6.5 10 2
6.5 9 2
6.5 9 0
2 6 0
2 6 2
1 6 2
1 6 0
3 6 0
3 6 2
0 6 2
0 6 0
5 6 0
5 6 2
6.5 6 0
6.5 6 2
10 6 0
10 6 2
8 4 0
8 4 2
8 0 2
8 0 0
8 10 0
8 10 2
8 9 2
8 9 0
8 6 2
8 6 0

CELLS 174 522
2 18 15
2 59 30
2 71 49
2 13 7
2 5 32
2 40 41
2 11 31
2 12 3
2 0 4
2 1 5
2 2 6
2 3 7
2 8 1
2 26 20
2 9 0
2 25 19
2 10 4
2 24 18
2 11 5
2 20 10
2 9 10
2 19 14
2 8 11
2 41 25
2 14 10
2 14 58
2 15 9
2 12 13
2 15 14
2 50 42
2 15 59
2 16 4
2 40 24
2 17 0
2 16 14
2 17 16
2 17 15
2 12 70
2 21 9
2 18 19
2 20 19
2 21 20
2 21 18
2 8 30
2 22 8
2 13 71
2 23 11
2 22 23
2 58 31
2 42 26
2 51 43
2 27 21
2 24 25
2 26 25
2 27 26
2 27 24
2 48 40
2 28 22
2 29 23
2 28 29
2 43 27
2 42 41
2 1 33
2 70 48
2 30 31
2 32 31
2 33 32
2 33 30
2 22 34
2 72 50
2 23 35
2 7 72
2 34 35
2 31 35
2 30 34
2 2 36
2 2 74
2 6 37
2 73 72
2 29 38
2 73 51
2 28 39
2 3 73
2 36 37
2 49 41
2 39 38
2 35 38
2 34 39
2 43 42
2 43 40
2 56 34
2 44 28
2 18 56
2 45 29
2 57 35
2 46 38
2 19 57
2 47 39
2 44 45
2 45 46
2 47 46
2 44 47
2 70 71
2 72 71
2 48 49
2 50 49
2 51 50
2 51 48
2 52 44
2 53 45
2 54 46
2 55 47
2 52 53
2 53 54
2 55 54
2 52 55
2 73 70
2 74 52
2 56 57
2 58 57
2 58 59
2 59 56
2 24 60
2 60 39
2 25 61
2 61 38
2 60 61
2 57 61
2 56 60
2 16 62
2 62 32
2 17 63
2 63 33
2 58 62
2 62 63
2 59 63
2 40 64
2 64 47
2 41 65
2 65 46
2 64 65
2 61 65
2 60 64
2 48 66
2 66 55
2 49 67
2 67 54
2 66 67
2 65 67
2 64 66
2 12 68
2 68 36
2 13 69
2 69 37
2 68 69
2 6 75
2 75 53
2 37 76
2 76 54
2 36 77
2 77 55
2 74 75
2 75 76
2 77 76
2 74 77
2 69 78
2 78 67
2 68 79
2 79 66
2 71 78
2 79 78
2 70 79
2 76 78
2 77 79

CELL_TYPES 174
3 
3 
3 
3 
3 
3 
3 
3 
3 
3 
3 
3 
3 
3 
3 
3 
3 
3 
3 
3 
3 
3 
3 
3 
3 
3 
3 
3 
3 
3 
3 
3 
3 
3 
3 
3 
3 
3 
3 
3 
3 
3 
3 
3 
3 
3 
3 
3 
3 
3 
3 
3 
3 
3 
3 
3 
3 
3 
3 
3 
3 
3 
3 
3 
3 
3 
3 
3 
3 
3 
3 
3 
3 
3 
3 
3 
3 
3 
3 
3 
3 
3 
3 
3 
3 
3 
3 
3 
3 
3 
3 
3 
3 
3 
3 
3 
3 
3 
3 
3 
3 
3 
3 
3 
3 
3 
3 
3 
3 
3 
3 
3 
3 
3 
3 
3 
3 
3 
3 
3 
3 
3 
3 
3 
3 
3 
3 
3 
3 
3 
3 
3 
3 
3 
3 
3 
3 
3 
3 
3 
3 
3 
3 
3 
3 
3 
3 
3 
3 
3 
3 
3 
3 
3 
3 
3 
3 
3 
3 
3 
3 
3 
3 
3 
3 
3 
3 
3 
3 
3 
3 
3 
3 
3 
POINT_DATA 80
SCALARS GMDS_ID int 1
LOOKUP_TABLE default
0 1 2 3 4 5 6 7 8 9 10 11 12 13 14 15 16 17 18 19 20 21 22 23 24 25 26 27 28 29 30 31 32 33 34 35 36 37 38 39 40 41 42 43 44 45 46 47 48 49 50 51 52 53 54 55 56 57 58 59 60 61 62 63 64 65 66 67 68 69 70 71 72 73 74 75 76 77 78 79 
SCALARS geom_link_dim int 1
LOOKUP_TABLE default
1 1 1 1 1 1 1 1 2 1 1 2 2 2 1 1 2 2 1 1 1 1 2 2 2 2 1 1 2 2 3 3 2 2 3 3 2 2 1 1 2 2 1 1 2 2 1 1 2 2 1 1 2 2 3 3 3 3 3 3 2 2 2 2 2 2 1 1 2 2 2 2 1 1 2 2 3 3 1 1 
SCALARS geom_link_id int 1
LOOKUP_TABLE default
26 28 31 32 25 27 29 30 8 2 1 14 11 16 3 4 20 21 8 7 5 6 8 14 12 19 9 10 8 14 5 1 20 21 5 1 11 16 11 12 18 7 13 14 8 14 15 16 9 15 17 18 8 14 1 5 5 1 1 5 12 19 20 21 18 7 20 19 11 16 10 13 21 22 8 14 1 5 23 24 


CELL_DATA 174
SCALARS GMDS_ID int 1
LOOKUP_TABLE default
0 1 2 3 4 5 6 7 8 9 10 11 13 14 15 16 17 18 19 20 21 22 23 24 25 26 27 28 30 31 32 33 34 35 36 37 38 39 40 41 42 43 44 45 46 47 48 49 50 51 52 53 54 55 56 57 58 59 61 62 63 64 65 66 67 68 69 70 71 72 73 74 75 76 77 78 79 80 81 82 83 84 85 86 87 88 90 91 92 93 94 95 96 97 98 99 100 101 102 103 104 105 106 107 108 109 110 111 113 115 117 119 120 121 122 123 124 125 126 127 128 129 130 131 132 133 134 135 136 137 138 139 140 141 142 143 144 145 146 147 148 149 150 151 152 153 154 155 156 157 158 159 160 161 162 165 166 167 168 169 170 171 172 173 174 175 176 177 178 179 180 181 182 183 

SCALARS geom_link_dim int 1
LOOKUP_TABLE default
2 0 0 0 0 0 0 2 2 2 2 2 2 2 2 0 2 0 0 0 2 2 0 0 2 0 2 0 0 2 0 0 0 0 0 0 0 0 0 0 2 2 2 0 2 0 0 0 0 0 2 2 0 0 2 0 0 2 0 0 0 2 0 0 0 0 0 0 0 0 0 2 0 0 0 2 2 0 2 0 0 0 2 0 0 0 0 0 2 0 0 2 0 0 0 2 0 2 0 0 0 0 0 2 0 2 2 2 2 0 0 0 0 0 0 0 2 2 0 0 0 0 0 0 0 0 0 0 0 0 0 0 0 0 0 0 0 0 2 2 0 0 0 2 0 2 0 0 0 0 2 2 0 0 0 0 0 0 0 0 0 0 0 0 0 0 2 0 2 2 0 2 0 0 

SCALARS geom_link_id int 1
LOOKUP_TABLE default
41 0 -1 0 0 0 0 11 48 35 36 34 8 45 42 0 43 0 0 0 24 40 0 0 31 0 22 0 0 38 0 0 0 0 0 0 0 -1 0 0 23 25 17 0 8 -1 0 0 0 0 37 46 0 0 47 0 0 8 0 0 0 7 0 -1 0 0 0 0 0 -1 0 33 0 0 0 11 8 0 26 0 -1 0 27 0 0 0 0 0 30 0 0 8 0 0 0 39 0 44 0 0 0 0 -1 13 0 15 32 9 8 0 0 0 0 0 0 0 10 8 0 0 0 0 0 0 0 0 0 0 0 0 0 0 0 0 0 0 0 0 7 7 0 0 0 9 0 15 0 0 0 0 11 11 0 0 0 -1 -1 -1 -1 -1 -1 -1 -1 -1 -1 -1 29 -1 28 13 -1 10 -1 -1 

