# vtk DataFile Version 3.0
Generated by GMDS VTK Writer

ASCII
DATASET UNSTRUCTURED_GRID
POINTS 30 float
0 0 0
0 10 0
10 10 0
10 0 0
0 0 2
0 10 2
10 10 2
10 0 2
1 10 0
1 0 0
1 0 2
1 10 2
10 4 0
10 4 2
1 4 2
1 4 0
0 4 2
0 4 0
2 4 0
2 4 2
2 0 2
2 0 0
2 10 0
2 10 2
3 4 0
3 4 2
3 0 2
3 0 0
3 10 0
3 10 2

CELLS 59 177
2 18 15
2 6 13
2 13 7
2 2 12
2 12 3
2 0 4
2 1 5
2 2 6
2 3 7
2 12 24
2 8 1
2 26 20
2 9 0
2 25 19
2 10 4
2 24 18
2 11 5
2 20 10
2 9 10
2 19 14
2 8 11
2 11 14
2 14 10
2 8 15
2 15 9
2 12 13
2 13 25
2 15 14
2 7 26
2 5 16
2 16 4
2 1 17
2 17 0
2 16 14
2 17 16
2 17 15
2 21 9
2 18 19
2 20 19
2 21 20
2 21 18
2 22 8
2 23 11
2 22 23
2 23 19
2 22 18
2 3 27
2 27 21
2 24 25
2 26 25
2 27 26
2 27 24
2 2 28
2 28 22
2 6 29
2 29 23
2 28 29
2 29 25
2 28 24

CELL_TYPES 59
3 
3 
3 
3 
3 
3 
3 
3 
3 
3 
3 
3 
3 
3 
3 
3 
3 
3 
3 
3 
3 
3 
3 
3 
3 
3 
3 
3 
3 
3 
3 
3 
3 
3 
3 
3 
3 
3 
3 
3 
3 
3 
3 
3 
3 
3 
3 
3 
3 
3 
3 
3 
3 
3 
3 
3 
3 
3 
3 
POINT_DATA 30
SCALARS GMDS_ID int 1
LOOKUP_TABLE default
0 1 2 3 4 5 6 7 8 9 10 11 12 13 14 15 16 17 18 19 20 21 22 23 24 25 26 27 28 29 
SCALARS geom_link_dim int 1
LOOKUP_TABLE default
1 1 1 1 1 1 1 1 2 1 1 2 2 2 1 1 2 2 1 1 1 1 2 2 2 2 1 1 2 2 
SCALARS geom_link_id int 1
LOOKUP_TABLE default
26 28 31 32 25 27 29 30 8 2 1 14 11 16 3 4 20 21 8 7 5 6 8 14 12 19 9 10 8 14 


CELL_DATA 59
SCALARS GMDS_ID int 1
LOOKUP_TABLE default
0 1 3 5 7 8 9 10 11 12 13 14 15 16 17 18 19 20 21 22 23 24 25 26 27 28 29 30 31 32 33 34 35 36 37 38 40 41 42 43 44 46 48 49 50 51 52 53 54 55 56 57 58 59 60 61 62 63 64 

SCALARS geom_link_dim int 1
LOOKUP_TABLE default
2 2 2 2 2 2 2 2 2 0 2 2 2 0 2 0 0 0 2 2 0 0 2 0 2 0 0 0 0 2 2 2 2 0 0 0 0 0 2 2 2 2 0 0 0 0 0 2 0 0 2 0 2 2 0 0 0 0 0 

SCALARS geom_link_id int 1
LOOKUP_TABLE default
41 16 16 11 11 48 35 36 34 -1 8 45 42 -1 43 -1 0 0 24 40 0 0 31 0 22 0 -1 0 -1 20 20 21 21 0 0 0 0 0 23 25 17 8 0 0 0 0 -1 46 -1 -1 47 -1 8 8 -1 -1 -1 -1 -1 

