# vtk DataFile Version 3.0
Generated by GMDS VTK Writer

ASCII
DATASET UNSTRUCTURED_GRID
POINTS 24 float
0 0 0
0 10 0
10 10 0
10 0 0
0 0 2
0 10 2
10 10 2
10 0 2
0 4 0
0 4 2
10 4 2
10 4 0
2 0 0
2 0 2
2 4 2
2 4 0
2 10 2
2 10 0
5 0 0
5 0 2
5 4 2
5 4 0
5 10 2
5 10 0

CELLS 46 138
2 13 4
2 3 18
2 20 14
2 12 0
2 18 12
2 10 20
2 0 4
2 1 5
2 2 6
2 3 7
2 0 8
2 8 1
2 4 9
2 9 5
2 7 10
2 10 6
2 3 11
2 11 2
2 8 9
2 7 19
2 11 10
2 19 13
2 14 9
2 15 8
2 12 13
2 13 14
2 14 15
2 12 15
2 16 5
2 17 1
2 16 14
2 17 16
2 17 15
2 11 21
2 21 15
2 18 19
2 19 20
2 20 21
2 18 21
2 6 22
2 22 16
2 2 23
2 23 17
2 22 20
2 23 22
2 23 21

CELL_TYPES 46
3 
3 
3 
3 
3 
3 
3 
3 
3 
3 
3 
3 
3 
3 
3 
3 
3 
3 
3 
3 
3 
3 
3 
3 
3 
3 
3 
3 
3 
3 
3 
3 
3 
3 
3 
3 
3 
3 
3 
3 
3 
3 
3 
3 
3 
3 
POINT_DATA 24
SCALARS GMDS_ID int 1
LOOKUP_TABLE default
0 1 2 3 4 5 6 7 8 9 10 11 12 13 14 15 16 17 18 19 20 21 22 23 
SCALARS geom_link_dim int 1
LOOKUP_TABLE default
1 1 1 1 1 1 1 1 2 2 2 2 1 1 1 1 2 2 1 1 2 2 2 2 
SCALARS geom_link_id int 1
LOOKUP_TABLE default
26 28 31 32 25 27 29 30 21 20 16 11 6 5 7 8 14 8 14 13 7 18 14 8 


CELL_DATA 46
SCALARS GMDS_ID int 1
LOOKUP_TABLE default
0 1 3 4 5 7 8 9 10 11 12 13 14 15 16 17 18 19 20 21 22 23 25 27 28 29 30 31 33 35 36 37 38 39 40 41 42 43 44 45 46 47 48 49 50 51 

SCALARS geom_link_dim int 1
LOOKUP_TABLE default
0 0 0 0 0 0 2 2 2 2 2 2 2 2 2 2 2 2 0 0 0 0 0 0 2 2 0 2 2 2 0 0 0 0 0 2 0 0 0 2 2 2 2 0 0 0 

SCALARS geom_link_id int 1
LOOKUP_TABLE default
0 -1 -1 0 -1 -1 48 35 36 34 21 21 20 20 16 16 11 11 0 -1 0 -1 0 0 25 23 0 17 14 8 0 0 0 -1 -1 30 -1 -1 -1 14 14 8 8 -1 -1 -1 

