# vtk DataFile Version 3.0
Generated by GMDS VTK Writer

ASCII
DATASET UNSTRUCTURED_GRID
POINTS 24 float
0 0 0
0 10 0
10 10 0
10 0 0
0 0 2
0 10 2
10 10 2
10 0 2
2 10 0
2 0 0
2 0 2
2 10 2
10 4 0
10 4 2
2 4 2
2 4 0
0 4 2
0 4 0
3 4 0
3 4 2
3 0 2
3 0 0
3 10 0
3 10 2

CELLS 46 138
2 18 15
2 6 13
2 7 20
2 13 7
2 12 18
2 2 12
2 13 19
2 12 3
2 0 4
2 1 5
2 2 6
2 3 7
2 8 1
2 9 0
2 10 4
2 11 5
2 20 10
2 9 10
2 19 14
2 8 11
2 11 14
2 14 10
2 8 15
2 15 9
2 12 13
2 15 14
2 5 16
2 16 4
2 1 17
2 17 0
2 16 14
2 17 16
2 17 15
2 3 21
2 21 9
2 18 19
2 20 19
2 21 20
2 21 18
2 2 22
2 22 8
2 6 23
2 23 11
2 22 23
2 23 19
2 22 18

CELL_TYPES 46
3 
3 
3 
3 
3 
3 
3 
3 
3 
3 
3 
3 
3 
3 
3 
3 
3 
3 
3 
3 
3 
3 
3 
3 
3 
3 
3 
3 
3 
3 
3 
3 
3 
3 
3 
3 
3 
3 
3 
3 
3 
3 
3 
3 
3 
3 
POINT_DATA 24
SCALARS GMDS_ID int 1
LOOKUP_TABLE default
0 1 2 3 4 5 6 7 8 9 10 11 12 13 14 15 16 17 18 19 20 21 22 23 
SCALARS geom_link_dim int 1
LOOKUP_TABLE default
1 1 1 1 1 1 1 1 2 1 1 2 2 2 1 1 2 2 2 2 1 1 2 2 
SCALARS geom_link_id int 1
LOOKUP_TABLE default
26 28 31 32 25 27 29 30 8 6 5 14 11 16 7 8 20 21 12 19 9 10 8 14 


CELL_DATA 46
SCALARS GMDS_ID int 1
LOOKUP_TABLE default
0 1 2 3 4 5 6 7 8 9 10 11 13 15 17 19 20 21 22 23 24 25 26 27 28 30 32 33 34 35 36 37 38 39 40 41 42 43 44 45 46 47 48 49 50 51 

SCALARS geom_link_dim int 1
LOOKUP_TABLE default
0 2 0 2 0 2 0 2 2 2 2 2 2 0 0 2 2 2 0 0 0 2 0 2 0 0 2 2 2 2 0 0 0 0 2 0 0 2 0 2 2 2 2 0 0 0 

SCALARS geom_link_id int 1
LOOKUP_TABLE default
-1 16 -1 16 -1 11 -1 11 48 35 36 34 8 0 0 14 45 25 -1 0 0 23 0 17 0 0 20 20 21 21 0 0 0 -1 46 -1 -1 47 -1 8 8 14 14 -1 -1 -1 

