# vtk DataFile Version 3.0
Generated by GMDS VTK Writer

ASCII
DATASET UNSTRUCTURED_GRID
POINTS 60 float
0 0 0
0 10 0
10 10 0
10 0 0
0 0 2
0 10 2
10 10 2
10 0 2
0 4 0
0 4 2
10 4 2
10 4 0
2 0 0
2 0 2
2 4 2
2 4 0
2 10 2
2 10 0
5 0 0
5 0 2
5 4 2
5 4 0
5 10 2
5 10 0
1 0 0
1 0 2
1 4 2
1 4 0
1 10 2
1 10 0
10 9 0
10 9 2
5 9 2
5 9 0
2 9 2
2 9 0
1 9 0
1 9 2
0 9 0
0 9 2
3 9 2
3 9 0
3 4 0
3 4 2
3 10 2
3 10 0
3 0 0
3 0 2
5 6 2
5 6 0
3 6 0
3 6 2
2 6 0
2 6 2
10 6 0
10 6 2
1 6 0
1 6 2
0 6 0
0 6 2

CELLS 126 378
2 22 32
2 3 18
2 14 26
2 41 50
2 51 43
2 26 9
2 10 20
2 0 4
2 1 5
2 2 6
2 3 7
2 0 8
2 41 35
2 4 9
2 33 41
2 7 10
2 40 41
2 3 11
2 43 42
2 8 9
2 7 19
2 11 10
2 40 51
2 40 34
2 6 31
2 25 4
2 12 13
2 13 14
2 14 15
2 12 15
2 24 0
2 32 40
2 2 30
2 20 43
2 17 16
2 43 14
2 11 21
2 50 42
2 18 19
2 19 20
2 20 21
2 18 21
2 6 22
2 32 48
2 2 23
2 48 20
2 23 22
2 15 27
2 27 8
2 24 25
2 25 26
2 26 27
2 24 27
2 16 28
2 28 5
2 17 29
2 29 1
2 42 15
2 28 29
2 21 42
2 23 33
2 30 31
2 31 32
2 32 33
2 30 33
2 16 34
2 17 35
2 49 21
2 34 35
2 33 49
2 29 36
2 28 37
2 35 36
2 37 36
2 34 37
2 1 38
2 5 39
2 38 36
2 38 39
2 39 37
2 22 44
2 44 16
2 23 45
2 45 17
2 44 45
2 45 41
2 44 40
2 18 46
2 46 12
2 19 47
2 47 13
2 46 47
2 47 43
2 46 42
2 48 49
2 49 50
2 51 50
2 48 51
2 35 52
2 52 15
2 34 53
2 53 14
2 52 50
2 53 52
2 53 51
2 30 54
2 54 11
2 31 55
2 55 10
2 54 55
2 55 48
2 54 49
2 36 56
2 56 27
2 37 57
2 57 26
2 52 56
2 56 57
2 53 57
2 38 58
2 58 8
2 39 59
2 59 9
2 56 58
2 58 59
2 57 59

CELL_TYPES 126
3 
3 
3 
3 
3 
3 
3 
3 
3 
3 
3 
3 
3 
3 
3 
3 
3 
3 
3 
3 
3 
3 
3 
3 
3 
3 
3 
3 
3 
3 
3 
3 
3 
3 
3 
3 
3 
3 
3 
3 
3 
3 
3 
3 
3 
3 
3 
3 
3 
3 
3 
3 
3 
3 
3 
3 
3 
3 
3 
3 
3 
3 
3 
3 
3 
3 
3 
3 
3 
3 
3 
3 
3 
3 
3 
3 
3 
3 
3 
3 
3 
3 
3 
3 
3 
3 
3 
3 
3 
3 
3 
3 
3 
3 
3 
3 
3 
3 
3 
3 
3 
3 
3 
3 
3 
3 
3 
3 
3 
3 
3 
3 
3 
3 
3 
3 
3 
3 
3 
3 
3 
3 
3 
3 
3 
3 
POINT_DATA 60
SCALARS GMDS_ID int 1
LOOKUP_TABLE default
0 1 2 3 4 5 6 7 8 9 10 11 12 13 14 15 16 17 18 19 20 21 22 23 24 25 26 27 28 29 30 31 32 33 34 35 36 37 38 39 40 41 42 43 44 45 46 47 48 49 50 51 52 53 54 55 56 57 58 59 
SCALARS geom_link_dim int 1
LOOKUP_TABLE default
1 1 1 1 1 1 1 1 2 2 2 2 1 1 1 1 2 2 1 1 2 2 2 2 1 1 1 1 2 2 2 2 1 1 3 3 3 3 2 2 1 1 2 2 2 2 1 1 2 2 2 2 3 3 2 2 3 3 2 2 
SCALARS geom_link_id int 1
LOOKUP_TABLE default
26 28 31 32 25 27 29 30 21 20 16 11 6 5 7 8 14 8 14 13 7 18 14 8 2 1 3 4 14 8 11 16 15 16 1 5 5 1 21 20 11 12 12 19 14 8 10 9 7 18 12 19 5 1 11 16 5 1 21 20 


CELL_DATA 126
SCALARS GMDS_ID int 1
LOOKUP_TABLE default
0 1 2 3 5 6 7 8 9 10 11 12 13 14 15 16 17 18 19 20 21 22 23 24 25 26 28 29 30 31 32 34 35 36 37 38 39 40 41 42 43 44 45 46 47 48 50 52 53 54 55 56 57 58 59 60 61 62 63 64 65 67 68 69 70 71 73 75 76 77 78 80 82 83 84 85 87 89 90 91 92 93 94 95 96 97 98 99 100 101 102 103 104 105 106 107 108 109 110 111 112 113 114 115 116 117 118 119 120 121 122 123 124 125 126 127 128 129 130 131 132 133 134 135 136 137 

SCALARS geom_link_dim int 1
LOOKUP_TABLE default
0 0 2 2 2 0 0 2 2 2 2 2 0 2 2 2 0 2 0 0 0 0 2 0 2 2 2 2 2 2 2 2 2 0 0 0 0 2 2 2 0 2 2 2 2 2 0 2 0 2 2 2 2 2 2 2 2 0 0 0 0 0 0 0 0 0 0 2 0 2 0 0 0 0 0 2 2 0 0 0 2 2 2 2 0 0 0 0 2 0 2 2 2 2 0 0 0 0 0 0 0 0 0 0 0 2 2 2 2 0 0 0 0 0 0 0 0 0 0 2 2 2 2 0 0 0 

SCALARS geom_link_id int 1
LOOKUP_TABLE default
0 0 40 12 19 0 0 48 35 36 34 21 0 20 44 16 0 11 0 0 0 0 19 0 16 43 25 23 6 17 42 39 11 0 0 0 0 12 30 7 0 18 14 7 8 7 0 41 0 24 31 3 22 14 14 8 8 0 0 0 0 0 0 0 0 0 0 18 0 18 0 0 0 0 0 21 20 0 0 0 14 14 8 8 0 0 0 0 46 0 45 47 19 12 0 0 0 0 0 0 0 0 0 0 0 11 11 16 16 0 0 0 0 0 0 0 0 0 0 21 21 20 20 0 0 0 

