# vtk DataFile Version 3.0
Generated by GMDS VTK Writer

ASCII
DATASET UNSTRUCTURED_GRID
POINTS 32 float
0 0 0
0 10 0
10 10 0
10 0 0
0 0 2
0 10 2
10 10 2
10 0 2
2 10 0
2 0 0
2 0 2
2 10 2
10 4 0
10 4 2
2 4 2
2 4 0
0 4 2
0 4 0
3 4 0
3 4 2
3 0 2
3 0 0
3 10 0
3 10 2
2 9 0
2 9 2
0 9 2
0 9 0
10 9 0
10 9 2
3 9 2
3 9 0

CELLS 64 192
2 18 15
2 7 20
2 13 7
2 12 18
2 13 19
2 12 3
2 0 4
2 1 5
2 2 6
2 3 7
2 8 24
2 8 1
2 26 16
2 9 0
2 25 14
2 10 4
2 24 15
2 11 5
2 20 10
2 9 10
2 19 14
2 8 11
2 14 10
2 15 9
2 12 13
2 11 25
2 15 14
2 5 26
2 16 4
2 17 0
2 16 14
2 17 16
2 17 15
2 3 21
2 21 9
2 18 19
2 20 19
2 21 20
2 21 18
2 2 22
2 22 8
2 6 23
2 23 11
2 22 23
2 1 27
2 27 17
2 24 25
2 26 25
2 27 26
2 27 24
2 2 28
2 28 12
2 6 29
2 29 13
2 23 30
2 30 19
2 22 31
2 31 18
2 28 29
2 29 30
2 31 30
2 28 31
2 25 30
2 24 31

CELL_TYPES 64
3 
3 
3 
3 
3 
3 
3 
3 
3 
3 
3 
3 
3 
3 
3 
3 
3 
3 
3 
3 
3 
3 
3 
3 
3 
3 
3 
3 
3 
3 
3 
3 
3 
3 
3 
3 
3 
3 
3 
3 
3 
3 
3 
3 
3 
3 
3 
3 
3 
3 
3 
3 
3 
3 
3 
3 
3 
3 
3 
3 
3 
3 
3 
3 
POINT_DATA 32
SCALARS GMDS_ID int 1
LOOKUP_TABLE default
0 1 2 3 4 5 6 7 8 9 10 11 12 13 14 15 16 17 18 19 20 21 22 23 24 25 26 27 28 29 30 31 
SCALARS geom_link_dim int 1
LOOKUP_TABLE default
1 1 1 1 1 1 1 1 2 1 1 2 2 2 1 1 2 2 2 2 1 1 2 2 3 3 2 2 2 2 1 1 
SCALARS geom_link_id int 1
LOOKUP_TABLE default
26 28 31 32 25 27 29 30 8 6 5 14 11 16 7 8 20 21 12 19 9 10 8 14 5 1 20 21 11 16 11 12 


CELL_DATA 64
SCALARS GMDS_ID int 1
LOOKUP_TABLE default
0 2 3 4 6 7 8 9 10 11 12 13 14 15 16 17 18 19 20 21 22 23 25 27 28 29 30 31 33 35 36 37 38 39 40 41 42 43 44 45 46 47 48 49 52 53 54 55 56 57 58 59 60 61 62 63 64 65 66 67 68 69 70 71 

SCALARS geom_link_dim int 1
LOOKUP_TABLE default
0 0 2 0 0 2 2 2 2 2 0 2 2 0 0 0 0 2 2 2 0 0 2 2 0 0 0 2 2 2 0 0 0 0 2 0 2 2 2 2 2 2 2 0 2 2 0 0 0 0 2 2 2 2 0 2 0 2 0 0 0 0 0 0 

SCALARS geom_link_id int 1
LOOKUP_TABLE default
0 0 16 0 0 11 48 35 36 34 -1 8 20 0 -1 0 -1 14 45 25 0 0 23 17 0 -1 0 20 20 21 0 0 0 0 46 0 19 47 12 8 8 14 14 0 21 21 -1 -1 -1 -1 11 11 16 16 -1 19 -1 12 -1 -1 -1 -1 -1 -1 

