# vtk DataFile Version 3.0
Generated by GMDS VTK Writer

ASCII
DATASET UNSTRUCTURED_GRID
POINTS 48 float
0 0 0
0 10 0
10 10 0
10 0 0
0 0 2
0 10 2
10 10 2
10 0 2
2 10 0
2 0 0
2 0 2
2 10 2
10 4 0
10 4 2
2 4 2
2 4 0
0 4 2
0 4 0
3 4 0
3 4 2
3 0 2
3 0 0
3 10 0
3 10 2
2 9 0
2 9 2
0 9 2
0 9 0
10 9 0
10 9 2
3 9 2
3 9 0
1 4 0
1 4 2
1 0 2
1 0 0
1 9 0
1 9 2
1 10 0
1 10 2
5 4 0
5 4 2
5 0 2
5 0 0
5 10 0
5 10 2
5 9 2
5 9 0

CELLS 98 294
2 18 15
2 40 18
2 13 7
2 12 40
2 12 3
2 0 4
2 1 5
2 2 6
2 3 7
2 8 24
2 41 19
2 26 16
2 42 41
2 25 14
2 43 21
2 24 15
2 13 41
2 20 10
2 9 10
2 19 14
2 8 11
2 14 33
2 14 10
2 33 16
2 15 9
2 12 13
2 11 25
2 15 14
2 5 26
2 32 17
2 16 4
2 15 32
2 17 0
2 3 43
2 17 16
2 40 41
2 21 9
2 18 19
2 20 19
2 21 20
2 21 18
2 22 8
2 23 11
2 22 23
2 34 4
2 35 0
2 1 27
2 27 17
2 24 25
2 42 20
2 27 26
2 7 42
2 2 28
2 28 12
2 6 29
2 29 13
2 23 30
2 30 19
2 22 31
2 31 18
2 28 29
2 31 30
2 25 30
2 24 31
2 33 32
2 34 33
2 35 34
2 35 32
2 24 36
2 36 27
2 25 37
2 37 26
2 36 37
2 33 37
2 32 36
2 8 38
2 38 1
2 11 39
2 39 5
2 38 39
2 39 37
2 38 36
2 43 42
2 43 40
2 2 44
2 44 22
2 6 45
2 45 23
2 29 46
2 46 30
2 28 47
2 47 31
2 44 45
2 45 46
2 47 46
2 44 47
2 41 46
2 40 47

CELL_TYPES 98
3 
3 
3 
3 
3 
3 
3 
3 
3 
3 
3 
3 
3 
3 
3 
3 
3 
3 
3 
3 
3 
3 
3 
3 
3 
3 
3 
3 
3 
3 
3 
3 
3 
3 
3 
3 
3 
3 
3 
3 
3 
3 
3 
3 
3 
3 
3 
3 
3 
3 
3 
3 
3 
3 
3 
3 
3 
3 
3 
3 
3 
3 
3 
3 
3 
3 
3 
3 
3 
3 
3 
3 
3 
3 
3 
3 
3 
3 
3 
3 
3 
3 
3 
3 
3 
3 
3 
3 
3 
3 
3 
3 
3 
3 
3 
3 
3 
3 
POINT_DATA 48
SCALARS GMDS_ID int 1
LOOKUP_TABLE default
0 1 2 3 4 5 6 7 8 9 10 11 12 13 14 15 16 17 18 19 20 21 22 23 24 25 26 27 28 29 30 31 32 33 34 35 36 37 38 39 40 41 42 43 44 45 46 47 
SCALARS geom_link_dim int 1
LOOKUP_TABLE default
1 1 1 1 1 1 1 1 2 1 1 2 2 2 1 1 2 2 2 2 1 1 2 2 3 3 2 2 2 2 1 1 1 1 1 1 3 3 2 2 2 2 1 1 2 2 1 1 
SCALARS geom_link_id int 1
LOOKUP_TABLE default
26 28 31 32 25 27 29 30 8 6 5 14 11 16 7 8 20 21 12 19 9 10 8 14 5 1 20 21 11 16 11 12 4 3 1 2 5 1 8 14 18 7 13 14 8 14 15 16 


CELL_DATA 98
SCALARS GMDS_ID int 1
LOOKUP_TABLE default
0 1 3 5 7 8 9 10 11 12 13 14 15 16 17 18 19 20 21 22 23 24 25 26 27 28 29 30 31 32 33 34 35 36 37 38 40 41 42 43 44 46 48 49 50 51 52 53 54 55 56 57 58 59 60 61 62 63 64 65 66 68 70 71 72 73 74 75 76 77 78 79 80 81 82 83 84 85 86 87 88 89 90 91 92 93 94 95 96 97 98 99 100 101 102 103 104 105 

SCALARS geom_link_dim int 1
LOOKUP_TABLE default
0 0 2 0 2 2 2 2 2 0 0 2 2 0 0 0 0 2 2 0 0 2 2 0 2 0 0 2 2 0 2 2 2 0 0 0 2 0 2 2 2 2 2 0 2 2 2 2 0 0 0 0 2 2 2 2 0 2 0 2 0 0 0 0 2 2 2 2 0 0 0 0 0 0 0 2 2 2 2 0 0 0 2 2 2 2 2 2 0 2 0 2 0 0 0 0 2 2 

SCALARS geom_link_id int 1
LOOKUP_TABLE default
0 -1 16 -1 11 48 35 36 34 0 -1 20 7 0 -1 0 -1 45 25 0 0 40 23 0 17 0 0 6 20 0 20 41 21 -1 0 -1 46 0 19 47 12 8 14 0 43 42 21 21 0 -1 0 -1 11 11 16 16 0 19 0 12 0 0 0 0 3 31 24 22 0 0 0 0 0 0 0 8 8 14 14 0 0 0 30 18 8 8 14 14 -1 39 -1 44 -1 -1 -1 -1 7 18 

