# vtk DataFile Version 3.0
Generated by GMDS VTK Writer

ASCII
DATASET UNSTRUCTURED_GRID
POINTS 60 float
0 0 0
0 10 0
10 10 0
10 0 0
0 0 2
0 10 2
10 10 2
10 0 2
0 4 0
0 4 2
10 4 2
10 4 0
2 0 0
2 0 2
2 4 2
2 4 0
2 10 2
2 10 0
5 0 0
5 0 2
5 4 2
5 4 0
5 10 2
5 10 0
1 0 0
1 0 2
1 4 2
1 4 0
1 10 2
1 10 0
10 9 0
10 9 2
5 9 2
5 9 0
2 9 2
2 9 0
1 9 0
1 9 2
0 9 0
0 9 2
3 9 2
3 9 0
3 4 0
3 4 2
3 10 2
3 10 0
3 0 0
3 0 2
5 6 2
5 6 0
3 6 0
3 6 2
2 6 0
2 6 2
10 6 0
10 6 2
1 6 0
1 6 2
0 6 0
0 6 2

CELLS 86 430
4 2 23 33 30 
4 32 33 41 40 
4 3 11 21 18 
4 35 41 50 52 
4 26 27 8 9 
4 0 4 9 8 
4 44 45 41 40 
4 10 11 21 20 
4 48 49 50 51 
4 3 7 10 11 
4 44 40 34 16 
4 7 10 20 19 
4 48 51 43 20 
4 3 7 19 18 
4 14 15 27 26 
4 22 23 33 32 
4 25 26 9 4 
4 12 13 14 15 
4 40 41 35 34 
4 6 22 32 31 
4 24 25 4 0 
4 2 6 31 30 
4 22 32 40 44 
4 32 40 51 48 
4 18 19 20 21 
4 45 41 35 17 
4 23 33 41 45 
4 2 6 22 23 
4 51 50 42 43 
4 44 45 17 16 
4 22 23 45 44 
4 24 27 8 0 
4 24 25 26 27 
4 16 17 29 28 
4 28 29 1 5 
4 43 42 15 14 
4 20 21 42 43 
4 30 31 32 33 
4 40 41 50 51 
4 49 50 42 21 
4 16 17 35 34 
4 33 41 50 49 
4 48 49 21 20 
4 32 33 49 48 
4 17 29 36 35 
4 28 29 36 37 
4 16 28 37 34 
4 34 35 36 37 
4 1 29 36 38 
4 1 5 39 38 
4 5 28 37 39 
4 37 36 38 39 
4 18 19 47 46 
4 46 47 13 12 
4 19 20 43 47 
4 47 43 14 13 
4 18 21 42 46 
4 46 42 15 12 
4 46 47 43 42 
4 52 50 42 15 
4 34 35 52 53 
4 53 52 15 14 
4 34 40 51 53 
4 53 51 43 14 
4 51 50 52 53 
4 30 31 55 54 
4 54 55 10 11 
4 31 32 48 55 
4 55 48 20 10 
4 30 33 49 54 
4 54 49 21 11 
4 54 55 48 49 
4 35 36 56 52 
4 52 56 27 15 
4 36 37 57 56 
4 56 57 26 27 
4 34 37 57 53 
4 53 57 26 14 
4 53 52 56 57 
4 36 38 58 56 
4 56 58 8 27 
4 38 39 59 58 
4 58 59 9 8 
4 37 39 59 57 
4 57 59 9 26 
4 57 56 58 59 

CELL_TYPES 86
9 
9 
9 
9 
9 
9 
9 
9 
9 
9 
9 
9 
9 
9 
9 
9 
9 
9 
9 
9 
9 
9 
9 
9 
9 
9 
9 
9 
9 
9 
9 
9 
9 
9 
9 
9 
9 
9 
9 
9 
9 
9 
9 
9 
9 
9 
9 
9 
9 
9 
9 
9 
9 
9 
9 
9 
9 
9 
9 
9 
9 
9 
9 
9 
9 
9 
9 
9 
9 
9 
9 
9 
9 
9 
9 
9 
9 
9 
9 
9 
9 
9 
9 
9 
9 
9 
POINT_DATA 60
SCALARS GMDS_ID int 1
LOOKUP_TABLE default
0 1 2 3 4 5 6 7 8 9 10 11 12 13 14 15 16 17 18 19 20 21 22 23 24 25 26 27 28 29 30 31 32 33 34 35 36 37 38 39 40 41 42 43 44 45 46 47 48 49 50 51 52 53 54 55 56 57 58 59 
SCALARS geom_link_dim int 1
LOOKUP_TABLE default
1 1 1 1 1 1 1 1 2 2 2 2 1 1 1 1 2 2 1 1 2 2 2 2 1 1 1 1 2 2 2 2 1 1 3 3 3 3 2 2 1 1 2 2 2 2 1 1 2 2 2 2 3 3 2 2 3 3 2 2 
SCALARS geom_link_id int 1
LOOKUP_TABLE default
26 28 31 32 25 27 29 30 21 20 16 11 6 5 7 8 14 8 14 13 7 18 14 8 2 1 3 4 14 8 11 16 15 16 1 5 5 1 21 20 11 12 12 19 14 8 10 9 7 18 12 19 5 1 11 16 5 1 21 20 


CELL_DATA 86
SCALARS GMDS_ID int 1
LOOKUP_TABLE default
0 1 2 4 5 6 7 8 9 10 11 12 13 14 15 16 17 19 20 21 22 25 26 27 28 29 30 31 32 33 34 36 37 40 41 42 43 46 47 48 49 51 52 53 54 56 58 60 61 63 65 67 68 69 70 71 72 73 74 75 76 77 78 79 80 81 82 83 84 85 86 87 88 89 90 91 92 93 94 95 96 97 98 99 100 101 

SCALARS geom_link_dim int 1
LOOKUP_TABLE default
0 0 0 0 0 0 0 0 0 0 0 0 0 0 0 0 0 0 0 0 0 0 0 0 0 0 0 0 0 0 0 0 0 0 0 0 0 0 0 0 0 0 0 0 0 0 0 0 0 0 0 0 0 0 0 0 0 0 0 0 0 0 0 0 0 0 0 0 0 0 0 0 0 0 0 0 0 0 0 0 0 0 0 0 0 0 

SCALARS geom_link_id int 1
LOOKUP_TABLE default
0 0 0 -1 0 0 0 0 -1 0 0 0 -1 0 0 0 0 0 0 0 0 0 0 -1 0 0 0 0 -1 0 0 0 0 0 0 0 0 0 -1 -1 0 -1 -1 -1 0 0 0 0 0 0 0 0 0 0 0 0 0 0 0 -1 -1 -1 -1 -1 -1 -1 -1 -1 -1 -1 -1 -1 -1 -1 -1 -1 -1 -1 -1 -1 -1 -1 -1 -1 -1 -1 

