# vtk DataFile Version 3.0
Generated by GMDS VTK Writer

ASCII
DATASET UNSTRUCTURED_GRID
POINTS 40 float
0 0 0
0 10 0
10 10 0
10 0 0
0 0 2
0 10 2
10 10 2
10 0 2
0 4 0
0 4 2
10 4 2
10 4 0
2 0 0
2 0 2
2 4 2
2 4 0
2 10 2
2 10 0
5 0 0
5 0 2
5 4 2
5 4 0
5 10 2
5 10 0
1 0 0
1 0 2
1 4 2
1 4 0
1 10 2
1 10 0
10 9 0
10 9 2
5 9 2
5 9 0
2 9 2
2 9 0
1 9 0
1 9 2
0 9 0
0 9 2

CELLS 52 260
4 2 23 33 30 
4 3 11 21 18 
4 32 33 21 20 
4 20 21 15 14 
4 26 27 8 9 
4 0 4 9 8 
4 10 11 21 20 
4 19 20 14 13 
4 3 7 10 11 
4 7 10 20 19 
4 18 19 13 12 
4 3 7 19 18 
4 14 15 27 26 
4 22 23 33 32 
4 25 26 9 4 
4 31 32 20 10 
4 12 13 14 15 
4 6 22 32 31 
4 24 25 4 0 
4 30 31 10 11 
4 2 6 31 30 
4 18 21 15 12 
4 18 19 20 21 
4 2 6 22 23 
4 23 22 16 17 
4 24 27 8 0 
4 24 25 26 27 
4 16 17 29 28 
4 28 29 1 5 
4 30 33 21 11 
4 30 31 32 33 
4 16 22 32 34 
4 34 32 20 14 
4 16 17 35 34 
4 34 35 15 14 
4 17 23 33 35 
4 35 33 21 15 
4 33 32 34 35 
4 17 29 36 35 
4 35 36 27 15 
4 28 29 36 37 
4 37 36 27 26 
4 16 28 37 34 
4 34 37 26 14 
4 34 35 36 37 
4 1 29 36 38 
4 38 36 27 8 
4 1 5 39 38 
4 38 39 9 8 
4 5 28 37 39 
4 39 37 26 9 
4 37 36 38 39 

CELL_TYPES 52
9 
9 
9 
9 
9 
9 
9 
9 
9 
9 
9 
9 
9 
9 
9 
9 
9 
9 
9 
9 
9 
9 
9 
9 
9 
9 
9 
9 
9 
9 
9 
9 
9 
9 
9 
9 
9 
9 
9 
9 
9 
9 
9 
9 
9 
9 
9 
9 
9 
9 
9 
9 
POINT_DATA 40
SCALARS GMDS_ID int 1
LOOKUP_TABLE default
0 1 2 3 4 5 6 7 8 9 10 11 12 13 14 15 16 17 18 19 20 21 22 23 24 25 26 27 28 29 30 31 32 33 34 35 36 37 38 39 
SCALARS geom_link_dim int 1
LOOKUP_TABLE default
1 1 1 1 1 1 1 1 2 2 2 2 1 1 1 1 2 2 1 1 2 2 2 2 1 1 1 1 2 2 2 2 1 1 3 3 3 3 2 2 
SCALARS geom_link_id int 1
LOOKUP_TABLE default
26 28 31 32 25 27 29 30 21 20 16 11 6 5 7 8 14 8 14 13 7 18 14 8 2 1 3 4 14 8 11 16 15 16 1 5 5 1 21 20 


CELL_DATA 52
SCALARS GMDS_ID int 1
LOOKUP_TABLE default
0 2 3 4 5 6 8 9 10 12 13 14 15 16 17 18 19 21 22 23 25 27 28 31 32 36 37 40 41 45 46 47 48 49 50 51 52 53 54 55 56 57 58 59 60 61 62 63 64 65 66 67 

SCALARS geom_link_dim int 1
LOOKUP_TABLE default
0 0 0 0 0 0 0 0 0 0 0 0 0 0 0 0 0 0 0 0 0 0 0 0 0 0 0 0 0 0 0 0 0 0 0 0 0 0 0 0 0 0 0 0 0 0 0 0 0 0 0 0 

SCALARS geom_link_id int 1
LOOKUP_TABLE default
0 0 0 0 0 0 0 0 0 0 0 0 0 0 0 0 0 0 0 0 0 0 0 0 0 0 0 0 0 0 0 0 0 0 0 0 0 0 0 0 0 0 0 0 0 0 0 0 0 0 0 0 

