# vtk DataFile Version 3.0
Generated by GMDS VTK Writer

ASCII
DATASET UNSTRUCTURED_GRID
POINTS 12 float
0 0 0
0 10 0
10 10 0
10 0 0
0 0 2
0 10 2
10 10 2
10 0 2
2 10 0
2 0 0
2 0 2
2 10 2

CELLS 11 55
4 0 1 5 4 
4 2 3 7 6 
4 2 3 9 8 
4 8 9 0 1 
4 3 7 10 9 
4 9 10 4 0 
4 6 7 10 11 
4 11 10 4 5 
4 2 6 11 8 
4 8 11 5 1 
4 8 9 10 11 

CELL_TYPES 11
9 
9 
9 
9 
9 
9 
9 
9 
9 
9 
9 
POINT_DATA 12
SCALARS GMDS_ID int 1
LOOKUP_TABLE default
0 1 2 3 4 5 6 7 8 9 10 11 
SCALARS geom_link_dim int 1
LOOKUP_TABLE default
1 1 1 1 1 1 1 1 2 1 1 2 
SCALARS geom_link_id int 1
LOOKUP_TABLE default
26 28 31 32 25 27 29 30 8 6 5 14 


CELL_DATA 11
SCALARS GMDS_ID int 1
LOOKUP_TABLE default
1 3 6 7 8 9 10 11 12 13 14 

SCALARS geom_link_dim int 1
LOOKUP_TABLE default
0 0 0 0 0 0 0 0 0 0 0 

SCALARS geom_link_id int 1
LOOKUP_TABLE default
0 0 -1 -1 -1 -1 -1 -1 -1 -1 -1 

