# vtk DataFile Version 3.0
Generated by GMDS VTK Writer

ASCII
DATASET UNSTRUCTURED_GRID
POINTS 24 float
0 0 0
0 10 0
10 10 0
10 0 0
0 0 2
0 10 2
10 10 2
10 0 2
2 10 0
2 0 0
2 0 2
2 10 2
10 4 0
10 4 2
2 4 2
2 4 0
0 4 2
0 4 0
3 4 0
3 4 2
3 0 2
3 0 0
3 10 0
3 10 2

CELLS 29 145
4 3 12 18 21 
4 21 20 10 9 
4 12 13 7 3 
4 2 6 13 12 
4 3 7 20 21 
4 20 19 14 10 
4 9 10 4 0 
4 7 13 19 20 
4 18 19 14 15 
4 8 11 5 1 
4 12 13 19 18 
4 8 11 14 15 
4 15 14 10 9 
4 5 11 14 16 
4 16 14 10 4 
4 1 5 16 17 
4 17 16 4 0 
4 1 8 15 17 
4 17 15 9 0 
4 15 14 16 17 
4 21 18 15 9 
4 18 19 20 21 
4 2 6 23 22 
4 22 23 11 8 
4 6 13 19 23 
4 23 19 14 11 
4 2 12 18 22 
4 22 18 15 8 
4 22 23 19 18 

CELL_TYPES 29
9 
9 
9 
9 
9 
9 
9 
9 
9 
9 
9 
9 
9 
9 
9 
9 
9 
9 
9 
9 
9 
9 
9 
9 
9 
9 
9 
9 
9 
POINT_DATA 24
SCALARS GMDS_ID int 1
LOOKUP_TABLE default
0 1 2 3 4 5 6 7 8 9 10 11 12 13 14 15 16 17 18 19 20 21 22 23 
SCALARS geom_link_dim int 1
LOOKUP_TABLE default
1 1 1 1 1 1 1 1 2 1 1 2 2 2 1 1 2 2 2 2 1 1 2 2 
SCALARS geom_link_id int 1
LOOKUP_TABLE default
26 28 31 32 25 27 29 30 8 6 5 14 11 16 7 8 20 21 12 19 9 10 8 14 


CELL_DATA 29
SCALARS GMDS_ID int 1
LOOKUP_TABLE default
1 3 4 5 6 7 9 10 11 13 14 15 16 20 21 22 23 24 25 26 27 28 29 30 31 32 33 34 35 

SCALARS geom_link_dim int 1
LOOKUP_TABLE default
0 0 0 0 0 0 0 0 0 0 0 0 0 0 0 0 0 0 0 0 0 0 0 0 0 0 0 0 0 

SCALARS geom_link_id int 1
LOOKUP_TABLE default
-1 -1 0 0 -1 -1 0 -1 -1 0 -1 0 0 0 0 0 0 0 0 0 -1 -1 -1 -1 -1 -1 -1 -1 -1 

