# vtk DataFile Version 3.0
Generated by GMDS VTK Writer

ASCII
DATASET UNSTRUCTURED_GRID
POINTS 80 float
0 0 0
0 10 0
10 10 0
10 0 0
0 0 2
0 10 2
10 10 2
10 0 2
0 4 0
0 4 2
10 4 2
10 4 0
2 0 0
2 0 2
2 4 2
2 4 0
2 10 2
2 10 0
5 0 0
5 0 2
5 4 2
5 4 0
5 10 2
5 10 0
1 0 0
1 0 2
1 4 2
1 4 0
1 10 2
1 10 0
10 9 0
10 9 2
5 9 2
5 9 0
2 9 2
2 9 0
1 9 0
1 9 2
0 9 0
0 9 2
3 9 2
3 9 0
3 4 0
3 4 2
3 10 2
3 10 0
3 0 0
3 0 2
5 6 2
5 6 0
3 6 0
3 6 2
2 6 0
2 6 2
10 6 0
10 6 2
1 6 0
1 6 2
0 6 0
0 6 2
8 0 0
8 0 2
8 4 2
8 4 0
8 10 0
8 10 2
8 9 2
8 9 0
8 6 2
8 6 0
6.5 9 0
6.5 9 2
6.5 6 2
6.5 6 0
6.5 10 0
6.5 10 2
6.5 0 0
6.5 0 2
6.5 4 2
6.5 4 0

CELLS 105 525
4 75 71 32 22 
4 32 33 41 40 
4 65 66 71 75 
4 67 66 68 69 
4 35 41 50 52 
4 26 27 8 9 
4 0 4 9 8 
4 44 45 41 40 
4 74 75 22 23 
4 7 10 62 61 
4 3 7 10 11 
4 44 40 34 16 
4 64 65 75 74 
4 70 71 72 73 
4 14 15 27 26 
4 22 23 33 32 
4 25 26 9 4 
4 12 13 14 15 
4 40 41 35 34 
4 70 73 49 33 
4 24 25 4 0 
4 30 54 69 67 
4 2 6 31 30 
4 22 32 40 44 
4 3 7 61 60 
4 18 19 20 21 
4 45 41 35 17 
4 23 33 41 45 
4 67 69 73 70 
4 51 50 42 43 
4 44 45 17 16 
4 22 23 45 44 
4 54 55 68 69 
4 24 27 8 0 
4 24 25 26 27 
4 31 55 68 66 
4 16 17 29 28 
4 28 29 1 5 
4 43 42 15 14 
4 10 11 63 62 
4 64 65 66 67 
4 72 73 49 48 
4 40 41 50 51 
4 60 61 62 63 
4 16 17 35 34 
4 2 30 67 64 
4 48 49 21 20 
4 32 33 49 48 
4 17 29 36 35 
4 28 29 36 37 
4 30 31 66 67 
4 16 28 37 34 
4 34 35 36 37 
4 1 29 36 38 
4 6 31 66 65 
4 1 5 39 38 
4 5 28 37 39 
4 2 6 65 64 
4 37 36 38 39 
4 3 11 63 60 
4 46 47 13 12 
4 47 43 14 13 
4 46 42 15 12 
4 46 47 43 42 
4 52 50 42 15 
4 34 35 52 53 
4 53 52 15 14 
4 34 40 51 53 
4 53 51 43 14 
4 51 50 52 53 
4 30 31 55 54 
4 54 55 10 11 
4 68 69 73 72 
4 71 72 48 32 
4 66 68 72 71 
4 71 70 33 32 
4 66 67 70 71 
4 35 36 56 52 
4 52 56 27 15 
4 36 37 57 56 
4 56 57 26 27 
4 34 37 57 53 
4 53 57 26 14 
4 53 52 56 57 
4 36 38 58 56 
4 56 58 8 27 
4 38 39 59 58 
4 58 59 9 8 
4 37 39 59 57 
4 57 59 9 26 
4 57 56 58 59 
4 10 55 68 62 
4 11 54 69 63 
4 69 68 62 63 
4 64 67 70 74 
4 74 70 33 23 
4 74 75 71 70 
4 76 77 19 18 
4 77 78 20 19 
4 78 79 21 20 
4 76 79 21 18 
4 76 77 78 79 
4 78 72 48 20 
4 79 73 49 21 
4 73 72 78 79 

CELL_TYPES 105
9 
9 
9 
9 
9 
9 
9 
9 
9 
9 
9 
9 
9 
9 
9 
9 
9 
9 
9 
9 
9 
9 
9 
9 
9 
9 
9 
9 
9 
9 
9 
9 
9 
9 
9 
9 
9 
9 
9 
9 
9 
9 
9 
9 
9 
9 
9 
9 
9 
9 
9 
9 
9 
9 
9 
9 
9 
9 
9 
9 
9 
9 
9 
9 
9 
9 
9 
9 
9 
9 
9 
9 
9 
9 
9 
9 
9 
9 
9 
9 
9 
9 
9 
9 
9 
9 
9 
9 
9 
9 
9 
9 
9 
9 
9 
9 
9 
9 
9 
9 
9 
9 
9 
9 
9 
POINT_DATA 80
SCALARS GMDS_ID int 1
LOOKUP_TABLE default
0 1 2 3 4 5 6 7 8 9 10 11 12 13 14 15 16 17 18 19 20 21 22 23 24 25 26 27 28 29 30 31 32 33 34 35 36 37 38 39 40 41 42 43 44 45 46 47 48 49 50 51 52 53 54 55 56 57 58 59 60 61 62 63 64 65 66 67 68 69 70 71 72 73 74 75 76 77 78 79 
SCALARS geom_link_dim int 1
LOOKUP_TABLE default
1 1 1 1 1 1 1 1 2 2 2 2 1 1 1 1 2 2 1 1 2 2 2 2 1 1 1 1 2 2 2 2 1 1 3 3 3 3 2 2 1 1 2 2 2 2 1 1 2 2 2 2 3 3 2 2 3 3 2 2 1 1 2 2 2 2 3 3 1 1 3 3 1 1 2 2 1 1 2 2 
SCALARS geom_link_id int 1
LOOKUP_TABLE default
26 28 31 32 25 27 29 30 21 20 16 11 6 5 7 8 14 8 14 13 7 18 14 8 2 1 3 4 14 8 11 16 15 16 1 5 5 1 21 20 11 12 12 19 14 8 10 9 7 18 12 19 5 1 11 16 5 1 21 20 22 21 13 10 8 14 1 5 23 24 5 1 19 20 8 14 18 17 15 9 


CELL_DATA 105
SCALARS GMDS_ID int 1
LOOKUP_TABLE default
0 1 2 3 4 5 6 7 8 9 10 11 12 14 15 16 17 19 20 21 22 23 25 26 27 28 29 30 31 32 33 34 35 36 37 39 40 41 42 43 44 46 47 48 49 50 52 53 54 56 57 58 60 61 62 63 65 66 67 68 69 71 73 74 75 76 77 78 79 80 81 82 83 84 85 86 87 88 89 90 91 92 93 94 95 96 97 98 99 100 101 102 104 106 107 108 109 111 113 115 117 118 120 122 123 

SCALARS geom_link_dim int 1
LOOKUP_TABLE default
3 3 3 3 3 3 3 3 3 3 3 3 3 4 3 4 3 3 4 3 3 3 3 3 3 3 3 3 3 3 3 3 4 3 3 3 3 3 4 3 4 4 3 3 4 3 3 3 3 4 4 3 4 3 3 3 3 3 4 3 3 3 3 3 3 4 4 3 3 4 3 3 3 3 3 4 4 3 3 4 4 3 3 4 3 3 3 3 3 3 4 3 3 3 3 3 4 3 3 3 3 3 3 3 3 

SCALARS geom_link_id int 1
LOOKUP_TABLE default
1 12 1 5 5 2 2 7 7 1 8 1 7 1 16 1 1 9 1 5 18 5 8 1 15 3 5 5 5 13 7 7 1 5 10 1 7 7 1 6 1 1 13 6 1 5 3 3 5 1 1 1 1 5 1 2 1 7 1 5 17 1 5 13 5 1 1 1 1 1 8 8 14 1 1 1 1 5 5 1 1 1 1 1 5 5 2 2 1 1 1 1 5 6 5 5 1 11 1 4 5 4 1 5 4 

