# vtk DataFile Version 3.0
Generated by GMDS VTK Writer

ASCII
DATASET UNSTRUCTURED_GRID
POINTS 8 float
0 0 0
0 10 0
10 10 0
10 0 0
0 0 2
0 10 2
10 10 2
10 0 2

CELLS 6 30
4 0 3 2 1 
4 0 1 5 4 
4 1 2 6 5 
4 2 3 7 6 
4 0 4 7 3 
4 4 5 6 7 

CELL_TYPES 6
9 
9 
9 
9 
9 
9 
POINT_DATA 8
SCALARS GMDS_ID int 1
LOOKUP_TABLE default
0 1 2 3 4 5 6 7 
SCALARS geom_link_dim int 1
LOOKUP_TABLE default
1 1 1 1 1 1 1 1 
SCALARS geom_link_id int 1
LOOKUP_TABLE default
26 28 31 32 25 27 29 30 


CELL_DATA 6
SCALARS GMDS_ID int 1
LOOKUP_TABLE default
0 1 2 3 4 5 

SCALARS geom_link_dim int 1
LOOKUP_TABLE default
0 0 0 0 0 0 

SCALARS geom_link_id int 1
LOOKUP_TABLE default
0 0 0 0 0 0 

