# vtk DataFile Version 3.0
Generated by GMDS VTK Writer

ASCII
DATASET UNSTRUCTURED_GRID
POINTS 48 float
0 0 0
0 10 0
10 10 0
10 0 0
0 0 2
0 10 2
10 10 2
10 0 2
0 4 0
0 4 2
10 4 2
10 4 0
2 0 0
2 0 2
2 4 2
2 4 0
2 10 2
2 10 0
5 0 0
5 0 2
5 4 2
5 4 0
5 10 2
5 10 0
1 0 0
1 0 2
1 4 2
1 4 0
1 10 2
1 10 0
10 9 0
10 9 2
5 9 2
5 9 0
2 9 2
2 9 0
1 9 0
1 9 2
0 9 0
0 9 2
3 9 2
3 9 0
3 4 0
3 4 2
3 10 2
3 10 0
3 0 0
3 0 2

CELLS 65 325
4 2 23 33 30 
4 32 33 41 40 
4 3 11 21 18 
4 32 33 21 20 
4 26 27 8 9 
4 0 4 9 8 
4 44 45 41 40 
4 10 11 21 20 
4 3 7 10 11 
4 44 40 34 16 
4 7 10 20 19 
4 3 7 19 18 
4 14 15 27 26 
4 22 23 33 32 
4 25 26 9 4 
4 31 32 20 10 
4 12 13 14 15 
4 40 41 35 34 
4 6 22 32 31 
4 24 25 4 0 
4 30 31 10 11 
4 21 33 41 42 
4 2 6 31 30 
4 22 32 40 44 
4 18 19 20 21 
4 45 41 35 17 
4 23 33 41 45 
4 2 6 22 23 
4 44 45 17 16 
4 22 23 45 44 
4 40 41 42 43 
4 24 27 8 0 
4 24 25 26 27 
4 43 40 34 14 
4 20 32 40 43 
4 16 17 29 28 
4 28 29 1 5 
4 43 42 15 14 
4 20 21 42 43 
4 42 41 35 15 
4 30 33 21 11 
4 30 31 32 33 
4 16 17 35 34 
4 34 35 15 14 
4 17 29 36 35 
4 35 36 27 15 
4 28 29 36 37 
4 37 36 27 26 
4 16 28 37 34 
4 34 37 26 14 
4 34 35 36 37 
4 1 29 36 38 
4 38 36 27 8 
4 1 5 39 38 
4 38 39 9 8 
4 5 28 37 39 
4 39 37 26 9 
4 37 36 38 39 
4 18 19 47 46 
4 46 47 13 12 
4 19 20 43 47 
4 47 43 14 13 
4 18 21 42 46 
4 46 42 15 12 
4 46 47 43 42 

CELL_TYPES 65
9 
9 
9 
9 
9 
9 
9 
9 
9 
9 
9 
9 
9 
9 
9 
9 
9 
9 
9 
9 
9 
9 
9 
9 
9 
9 
9 
9 
9 
9 
9 
9 
9 
9 
9 
9 
9 
9 
9 
9 
9 
9 
9 
9 
9 
9 
9 
9 
9 
9 
9 
9 
9 
9 
9 
9 
9 
9 
9 
9 
9 
9 
9 
9 
9 
POINT_DATA 48
SCALARS GMDS_ID int 1
LOOKUP_TABLE default
0 1 2 3 4 5 6 7 8 9 10 11 12 13 14 15 16 17 18 19 20 21 22 23 24 25 26 27 28 29 30 31 32 33 34 35 36 37 38 39 40 41 42 43 44 45 46 47 
SCALARS geom_link_dim int 1
LOOKUP_TABLE default
1 1 1 1 1 1 1 1 2 2 2 2 1 1 1 1 2 2 1 1 2 2 2 2 1 1 1 1 2 2 2 2 1 1 3 3 3 3 2 2 1 1 2 2 2 2 1 1 
SCALARS geom_link_id int 1
LOOKUP_TABLE default
26 28 31 32 25 27 29 30 21 20 16 11 6 5 7 8 14 8 14 13 7 18 14 8 2 1 3 4 14 8 11 16 15 16 1 5 5 1 21 20 11 12 12 19 14 8 10 9 


CELL_DATA 65
SCALARS GMDS_ID int 1
LOOKUP_TABLE default
0 1 2 3 5 6 7 8 10 11 12 14 15 16 17 18 19 20 21 22 23 24 25 26 28 29 30 31 33 34 35 36 37 38 39 40 41 42 43 44 45 46 49 50 54 55 56 57 58 59 60 61 62 63 64 65 66 67 68 69 70 71 72 73 74 

SCALARS geom_link_dim int 1
LOOKUP_TABLE default
0 0 0 0 0 0 0 0 0 0 0 0 0 0 0 0 0 0 0 0 0 0 0 0 0 0 0 0 0 0 0 0 0 0 0 0 0 0 0 0 0 0 0 0 0 0 0 0 0 0 0 0 0 0 0 0 0 0 0 0 0 0 0 0 0 

SCALARS geom_link_id int 1
LOOKUP_TABLE default
0 -1 0 0 0 0 -1 0 0 -1 0 0 0 0 0 0 0 -1 0 0 0 -1 0 -1 0 -1 -1 0 -1 -1 -1 0 0 -1 -1 0 0 -1 -1 -1 0 0 0 0 0 0 0 0 0 0 0 0 0 0 0 0 0 0 -1 -1 -1 -1 -1 -1 -1 

