# vtk DataFile Version 3.0
Generated by GMDS VTK Writer

ASCII
DATASET UNSTRUCTURED_GRID
POINTS 80 float
0 0 0
0 10 0
10 10 0
10 0 0
0 0 2
0 10 2
10 10 2
10 0 2
1 10 0
1 0 0
1 0 2
1 10 2
10 4 0
10 4 2
1 4 2
1 4 0
0 4 2
0 4 0
2 4 0
2 4 2
2 0 2
2 0 0
2 10 0
2 10 2
3 4 0
3 4 2
3 0 2
3 0 0
3 10 0
3 10 2
1 9 0
1 9 2
0 9 2
0 9 0
2 9 0
2 9 2
10 9 0
10 9 2
3 9 2
3 9 0
5 4 0
5 4 2
5 0 2
5 0 0
5 10 0
5 10 2
5 9 2
5 9 0
6.5 4 0
6.5 4 2
6.5 0 2
6.5 0 0
6.5 10 0
6.5 10 2
6.5 9 2
6.5 9 0
2 6 0
2 6 2
1 6 2
1 6 0
3 6 0
3 6 2
0 6 2
0 6 0
5 6 0
5 6 2
6.5 6 0
6.5 6 2
10 6 0
10 6 2
8 4 0
8 4 2
8 0 2
8 0 0
8 10 0
8 10 2
8 9 2
8 9 0
8 6 2
8 6 0

CELLS 123 615
4 1 8 30 33 
4 27 26 20 21 
4 21 20 10 9 
4 12 13 7 3 
4 45 46 38 29 
4 13 69 78 71 
4 20 19 14 10 
4 48 49 50 51 
4 9 10 4 0 
4 1 5 32 33 
4 18 19 14 15 
4 26 25 19 20 
4 8 11 5 1 
4 74 75 76 77 
4 24 25 61 60 
4 15 14 10 9 
4 51 48 40 43 
4 24 25 19 18 
4 44 45 29 28 
4 16 14 10 4 
4 56 57 58 59 
4 17 16 4 0 
4 40 41 42 43 
4 17 15 9 0 
4 15 14 16 17 
4 21 18 15 9 
4 18 19 20 21 
4 5 11 31 32 
4 22 23 11 8 
4 74 77 55 52 
4 43 40 24 27 
4 8 11 31 30 
4 59 56 34 30 
4 43 42 26 27 
4 27 24 18 21 
4 24 25 26 27 
4 51 50 42 43 
4 28 29 23 22 
4 15 18 56 59 
4 42 41 25 26 
4 58 59 30 31 
4 40 41 25 24 
4 14 15 59 58 
4 2 36 77 74 
4 30 31 32 33 
4 22 23 35 34 
4 77 76 54 55 
4 11 23 35 31 
4 36 37 76 77 
4 8 22 34 30 
4 75 76 54 53 
4 34 35 31 30 
4 2 6 37 36 
4 6 37 76 75 
4 50 49 41 42 
4 28 29 38 39 
4 74 75 53 52 
4 48 49 41 40 
4 23 29 38 35 
4 2 6 75 74 
4 22 28 39 34 
4 70 71 72 73 
4 39 38 35 34 
4 58 57 35 31 
4 47 46 38 39 
4 14 19 57 58 
4 44 47 39 28 
4 44 45 46 47 
4 56 57 35 34 
4 73 70 48 51 
4 18 19 57 56 
4 3 12 70 73 
4 73 72 50 51 
4 52 53 45 44 
4 53 54 46 45 
4 55 54 46 47 
4 52 55 47 44 
4 52 53 54 55 
4 3 7 72 73 
4 72 71 49 50 
4 7 13 71 72 
4 70 71 49 48 
4 12 13 71 70 
4 60 61 38 39 
4 19 25 61 57 
4 57 61 38 35 
4 18 24 60 56 
4 56 60 39 34 
4 60 61 57 56 
4 14 16 62 58 
4 58 62 32 31 
4 16 17 63 62 
4 62 63 33 32 
4 15 17 63 59 
4 59 63 33 30 
4 59 58 62 63 
4 40 41 65 64 
4 64 65 46 47 
4 25 41 65 61 
4 61 65 46 38 
4 24 40 64 60 
4 60 64 47 39 
4 64 65 61 60 
4 48 49 67 66 
4 66 67 54 55 
4 41 49 67 65 
4 65 67 54 46 
4 40 48 66 64 
4 64 66 55 47 
4 66 67 65 64 
4 12 13 69 68 
4 68 69 37 36 
4 71 78 67 49 
4 68 69 78 79 
4 79 78 67 66 
4 12 68 79 70 
4 70 79 66 48 
4 70 71 78 79 
4 37 69 78 76 
4 76 78 67 54 
4 36 68 79 77 
4 77 79 66 55 
4 79 78 76 77 

CELL_TYPES 123
9 
9 
9 
9 
9 
9 
9 
9 
9 
9 
9 
9 
9 
9 
9 
9 
9 
9 
9 
9 
9 
9 
9 
9 
9 
9 
9 
9 
9 
9 
9 
9 
9 
9 
9 
9 
9 
9 
9 
9 
9 
9 
9 
9 
9 
9 
9 
9 
9 
9 
9 
9 
9 
9 
9 
9 
9 
9 
9 
9 
9 
9 
9 
9 
9 
9 
9 
9 
9 
9 
9 
9 
9 
9 
9 
9 
9 
9 
9 
9 
9 
9 
9 
9 
9 
9 
9 
9 
9 
9 
9 
9 
9 
9 
9 
9 
9 
9 
9 
9 
9 
9 
9 
9 
9 
9 
9 
9 
9 
9 
9 
9 
9 
9 
9 
9 
9 
9 
9 
9 
9 
9 
9 
POINT_DATA 80
SCALARS GMDS_ID int 1
LOOKUP_TABLE default
0 1 2 3 4 5 6 7 8 9 10 11 12 13 14 15 16 17 18 19 20 21 22 23 24 25 26 27 28 29 30 31 32 33 34 35 36 37 38 39 40 41 42 43 44 45 46 47 48 49 50 51 52 53 54 55 56 57 58 59 60 61 62 63 64 65 66 67 68 69 70 71 72 73 74 75 76 77 78 79 
SCALARS geom_link_dim int 1
LOOKUP_TABLE default
1 1 1 1 1 1 1 1 2 1 1 2 2 2 1 1 2 2 1 1 1 1 2 2 2 2 1 1 2 2 3 3 2 2 3 3 2 2 1 1 2 2 1 1 2 2 1 1 2 2 1 1 2 2 3 3 3 3 3 3 2 2 2 2 2 2 1 1 2 2 2 2 1 1 2 2 3 3 1 1 
SCALARS geom_link_id int 1
LOOKUP_TABLE default
26 28 31 32 25 27 29 30 8 2 1 14 11 16 3 4 20 21 8 7 5 6 8 14 12 19 9 10 8 14 5 1 20 21 5 1 11 16 11 12 18 7 13 14 8 14 15 16 9 15 17 18 8 14 1 5 5 1 1 5 12 19 20 21 18 7 20 19 11 16 10 13 21 22 8 14 1 5 23 24 


CELL_DATA 123
SCALARS GMDS_ID int 1
LOOKUP_TABLE default
1 2 3 4 5 6 7 8 9 10 11 12 13 14 15 16 17 18 20 21 22 23 24 25 26 27 28 29 30 31 32 33 34 35 36 37 38 39 40 41 42 43 44 45 46 47 48 49 50 51 52 53 54 55 57 58 59 61 63 64 65 66 67 68 69 70 71 72 73 74 75 76 77 78 80 82 84 85 86 87 88 89 90 91 92 93 94 95 96 97 98 99 100 101 102 103 104 105 106 107 108 109 110 111 112 113 114 115 116 117 118 119 125 126 127 128 129 130 131 132 133 134 135 

SCALARS geom_link_dim int 1
LOOKUP_TABLE default
0 0 0 0 0 0 0 0 0 0 0 0 0 0 0 0 0 0 0 0 0 0 0 0 0 0 0 0 0 0 0 0 0 0 0 0 0 0 0 0 0 0 0 0 0 0 0 0 0 0 0 0 0 0 0 0 0 0 0 0 0 0 0 0 0 0 0 0 0 0 0 0 0 0 0 0 0 0 0 0 0 0 0 0 0 0 0 0 0 0 0 0 0 0 0 0 0 0 0 0 0 0 0 0 0 0 0 0 0 0 0 0 0 0 0 0 0 0 0 0 0 0 0 

SCALARS geom_link_id int 1
LOOKUP_TABLE default
0 0 0 0 0 -1 0 0 0 0 0 0 0 -1 0 0 0 0 0 0 0 0 0 0 0 0 0 0 0 -1 0 0 0 0 0 0 0 0 0 0 0 0 0 -1 0 0 -1 0 -1 0 -1 0 0 -1 0 0 -1 0 0 -1 0 -1 0 0 0 0 0 0 0 -1 0 -1 -1 0 0 0 0 0 -1 -1 -1 -1 -1 0 0 0 0 0 0 0 0 0 0 0 0 0 0 0 0 0 0 0 0 0 0 0 0 0 0 0 0 0 -1 -1 -1 -1 -1 -1 -1 -1 -1 -1 -1 

