# vtk DataFile Version 3.0
Generated by GMDS VTK Writer

ASCII
DATASET UNSTRUCTURED_GRID
POINTS 30 float
0 0 0
0 10 0
10 10 0
10 0 0
0 0 2
0 10 2
10 10 2
10 0 2
0 4 0
0 4 2
10 4 2
10 4 0
2 0 0
2 0 2
2 4 2
2 4 0
2 10 2
2 10 0
5 0 0
5 0 2
5 4 2
5 4 0
5 10 2
5 10 0
1 0 0
1 0 2
1 4 2
1 4 0
1 10 2
1 10 0

CELLS 38 190
4 12 15 27 24 
4 3 11 21 18 
4 20 21 15 14 
4 26 27 8 9 
4 0 4 9 8 
4 8 9 5 1 
4 10 11 21 20 
4 19 20 14 13 
4 3 7 10 11 
4 11 10 6 2 
4 7 10 20 19 
4 18 19 13 12 
4 3 7 19 18 
4 14 15 27 26 
4 25 26 9 4 
4 12 13 14 15 
4 13 14 26 25 
4 24 25 4 0 
4 12 13 25 24 
4 15 14 16 17 
4 18 21 15 12 
4 18 19 20 21 
4 6 10 20 22 
4 22 20 14 16 
4 2 6 22 23 
4 23 22 16 17 
4 2 11 21 23 
4 23 21 15 17 
4 21 20 22 23 
4 24 27 8 0 
4 24 25 26 27 
4 14 16 28 26 
4 26 28 5 9 
4 16 17 29 28 
4 28 29 1 5 
4 15 17 29 27 
4 27 29 1 8 
4 27 26 28 29 

CELL_TYPES 38
9 
9 
9 
9 
9 
9 
9 
9 
9 
9 
9 
9 
9 
9 
9 
9 
9 
9 
9 
9 
9 
9 
9 
9 
9 
9 
9 
9 
9 
9 
9 
9 
9 
9 
9 
9 
9 
9 
POINT_DATA 30
SCALARS GMDS_ID int 1
LOOKUP_TABLE default
0 1 2 3 4 5 6 7 8 9 10 11 12 13 14 15 16 17 18 19 20 21 22 23 24 25 26 27 28 29 
SCALARS geom_link_dim int 1
LOOKUP_TABLE default
1 1 1 1 1 1 1 1 2 2 2 2 1 1 1 1 2 2 1 1 2 2 2 2 1 1 1 1 2 2 
SCALARS geom_link_id int 1
LOOKUP_TABLE default
26 28 31 32 25 27 29 30 21 20 16 11 6 5 7 8 14 8 14 13 7 18 14 8 2 1 3 4 14 8 


CELL_DATA 38
SCALARS GMDS_ID int 1
LOOKUP_TABLE default
1 2 4 5 6 7 8 9 10 11 12 13 14 15 17 19 20 22 24 26 27 28 29 30 31 32 33 34 35 36 37 38 39 40 41 42 43 44 

SCALARS geom_link_dim int 1
LOOKUP_TABLE default
0 0 0 0 0 0 0 0 0 0 0 0 0 0 0 0 0 0 0 0 0 0 0 0 0 0 0 0 0 0 0 0 0 0 0 0 0 0 

SCALARS geom_link_id int 1
LOOKUP_TABLE default
-1 0 0 -1 0 0 0 0 0 0 0 0 0 -1 -1 0 -1 -1 -1 0 0 0 0 0 0 0 0 0 0 -1 -1 -1 -1 -1 -1 -1 -1 -1 

