# vtk DataFile Version 3.0
Generated by GMDS VTK Writer

ASCII
DATASET UNSTRUCTURED_GRID
POINTS 70 float
0 0 0
0 10 0
10 10 0
10 0 0
0 0 2
0 10 2
10 10 2
10 0 2
2 10 0
2 0 0
2 0 2
2 10 2
10 4 0
10 4 2
2 4 2
2 4 0
0 4 2
0 4 0
3 4 0
3 4 2
3 0 2
3 0 0
3 10 0
3 10 2
2 9 0
2 9 2
0 9 2
0 9 0
10 9 0
10 9 2
3 9 2
3 9 0
1 4 0
1 4 2
1 0 2
1 0 0
1 9 0
1 9 2
1 10 0
1 10 2
5 4 0
5 4 2
5 0 2
5 0 0
5 10 0
5 10 2
5 9 2
5 9 0
8 4 0
8 4 2
8 0 2
8 0 0
8 10 0
8 10 2
8 9 2
8 9 0
8 6 0
8 6 2
5 6 2
5 6 0
10 6 0
10 6 2
2 6 0
2 6 2
1 6 2
1 6 0
3 6 0
3 6 2
0 6 2
0 6 0

CELLS 98 490
4 45 46 30 23 
4 2 6 53 52 
4 21 20 10 9 
4 12 13 7 3 
4 24 25 37 36 
4 48 49 50 51 
4 20 19 14 10 
4 1 5 26 27 
4 13 49 57 61 
4 51 48 40 43 
4 18 19 14 15 
4 44 45 23 22 
4 60 61 29 28 
4 3 12 48 51 
4 32 33 34 35 
4 15 14 10 9 
4 40 41 42 43 
4 8 11 25 24 
4 35 32 17 0 
4 43 40 18 21 
4 12 13 61 60 
4 17 16 4 0 
4 35 34 4 0 
4 56 57 58 59 
4 43 42 20 21 
4 21 18 15 9 
4 18 19 20 21 
4 51 50 42 43 
4 22 23 11 8 
4 40 41 19 18 
4 34 33 16 4 
4 59 56 55 47 
4 33 32 17 16 
4 14 15 32 33 
4 40 48 56 59 
4 42 41 19 20 
4 2 6 29 28 
4 24 36 65 62 
4 3 7 50 51 
4 50 49 41 42 
4 22 23 30 31 
4 7 13 49 50 
4 48 49 41 40 
4 12 13 49 48 
4 11 23 30 25 
4 8 22 31 24 
4 31 30 25 24 
4 36 37 26 27 
4 8 11 39 38 
4 38 39 5 1 
4 11 25 37 39 
4 39 37 26 5 
4 8 24 36 38 
4 38 36 27 1 
4 38 39 37 36 
4 59 58 46 47 
4 47 46 30 31 
4 40 41 58 59 
4 44 47 31 22 
4 44 45 46 47 
4 58 57 54 46 
4 56 57 54 55 
4 41 49 57 58 
4 48 49 57 56 
4 65 64 33 32 
4 52 53 45 44 
4 6 29 54 53 
4 53 54 46 45 
4 28 29 54 55 
4 55 54 46 47 
4 2 28 55 52 
4 52 55 47 44 
4 52 53 54 55 
4 36 37 64 65 
4 63 64 33 14 
4 25 37 64 63 
4 62 63 14 15 
4 24 25 63 62 
4 61 57 54 29 
4 12 48 56 60 
4 60 56 55 28 
4 60 61 57 56 
4 62 65 32 15 
4 62 63 64 65 
4 30 31 66 67 
4 67 66 18 19 
4 25 30 67 63 
4 63 67 19 14 
4 24 31 66 62 
4 62 66 18 15 
4 66 67 63 62 
4 26 37 64 68 
4 68 64 33 16 
4 26 27 69 68 
4 68 69 17 16 
4 27 36 65 69 
4 69 65 32 17 
4 65 64 68 69 

CELL_TYPES 98
9 
9 
9 
9 
9 
9 
9 
9 
9 
9 
9 
9 
9 
9 
9 
9 
9 
9 
9 
9 
9 
9 
9 
9 
9 
9 
9 
9 
9 
9 
9 
9 
9 
9 
9 
9 
9 
9 
9 
9 
9 
9 
9 
9 
9 
9 
9 
9 
9 
9 
9 
9 
9 
9 
9 
9 
9 
9 
9 
9 
9 
9 
9 
9 
9 
9 
9 
9 
9 
9 
9 
9 
9 
9 
9 
9 
9 
9 
9 
9 
9 
9 
9 
9 
9 
9 
9 
9 
9 
9 
9 
9 
9 
9 
9 
9 
9 
9 
POINT_DATA 70
SCALARS GMDS_ID int 1
LOOKUP_TABLE default
0 1 2 3 4 5 6 7 8 9 10 11 12 13 14 15 16 17 18 19 20 21 22 23 24 25 26 27 28 29 30 31 32 33 34 35 36 37 38 39 40 41 42 43 44 45 46 47 48 49 50 51 52 53 54 55 56 57 58 59 60 61 62 63 64 65 66 67 68 69 
SCALARS geom_link_dim int 1
LOOKUP_TABLE default
1 1 1 1 1 1 1 1 2 1 1 2 2 2 1 1 2 2 2 2 1 1 2 2 3 3 2 2 2 2 1 1 1 1 1 1 3 3 2 2 2 2 1 1 2 2 1 1 2 2 1 1 2 2 3 3 1 1 2 2 2 2 3 3 3 3 2 2 2 2 
SCALARS geom_link_id int 1
LOOKUP_TABLE default
26 28 31 32 25 27 29 30 8 6 5 14 11 16 7 8 20 21 12 19 9 10 8 14 5 1 20 21 11 16 11 12 4 3 1 2 5 1 8 14 18 7 13 14 8 14 15 16 10 13 21 22 8 14 1 5 24 23 7 18 11 16 5 1 1 5 12 19 20 21 


CELL_DATA 98
SCALARS GMDS_ID int 1
LOOKUP_TABLE default
0 1 3 4 5 6 7 8 9 10 11 12 13 14 15 16 17 19 20 21 22 23 24 25 26 27 28 29 30 31 32 33 34 35 36 37 38 39 40 41 42 44 45 46 47 49 51 52 58 59 60 61 62 63 64 65 66 67 68 69 70 71 72 73 74 75 76 77 78 79 80 81 82 83 84 85 86 87 88 89 90 91 92 93 94 95 96 97 98 99 100 101 102 103 104 105 106 107 

SCALARS geom_link_dim int 1
LOOKUP_TABLE default
0 0 0 0 0 0 0 0 0 0 0 0 0 0 0 0 0 0 0 0 0 0 0 0 0 0 0 0 0 0 0 0 0 0 0 0 0 0 0 0 0 0 0 0 0 0 0 0 0 0 0 0 0 0 0 0 0 0 0 0 0 0 0 0 0 0 0 0 0 0 0 0 0 0 0 0 0 0 0 0 0 0 0 0 0 0 0 0 0 0 0 0 0 0 0 0 0 0 

SCALARS geom_link_id int 1
LOOKUP_TABLE default
0 0 0 0 0 0 0 0 0 0 0 0 0 0 0 0 0 0 0 0 0 0 0 0 0 0 0 0 0 0 0 0 0 0 0 0 0 -1 0 0 0 0 0 0 0 0 0 0 0 0 0 0 0 0 0 0 0 0 0 0 0 0 0 0 -1 0 0 0 0 0 0 0 0 -1 -1 -1 -1 -1 0 0 0 0 -1 -1 -1 -1 -1 -1 -1 -1 -1 -1 -1 -1 -1 -1 -1 -1 

