# vtk DataFile Version 3.0
Generated by GMDS VTK Writer

ASCII
DATASET UNSTRUCTURED_GRID
POINTS 32 float
0 0 0
0 10 0
10 10 0
10 0 0
0 0 2
0 10 2
10 10 2
10 0 2
0 4 0
0 4 2
10 4 2
10 4 0
3 0 0
3 0 2
3 4 2
3 4 0
3 10 2
3 10 0
10 9 0
10 9 2
3 9 2
3 9 0
0 9 2
0 9 0
8 0 0
8 0 2
8 4 2
8 4 0
8 9 0
8 9 2
8 10 0
8 10 2

CELLS 42 210
4 13 14 9 4 
4 12 13 4 0 
4 20 21 15 14 
4 0 4 9 8 
4 3 11 27 24 
4 16 17 21 20 
4 3 7 10 11 
4 26 27 15 14 
4 18 19 10 11 
4 2 6 19 18 
4 14 15 8 9 
4 12 15 8 0 
4 12 13 14 15 
4 10 11 27 26 
4 25 26 14 13 
4 17 16 5 1 
4 7 10 26 25 
4 24 25 13 12 
4 3 7 25 24 
4 5 16 20 22 
4 22 20 14 9 
4 1 5 22 23 
4 23 22 9 8 
4 1 17 21 23 
4 23 21 15 8 
4 21 20 22 23 
4 24 27 15 12 
4 24 25 26 27 
4 18 19 29 28 
4 28 29 20 21 
4 10 19 29 26 
4 26 29 20 14 
4 11 18 28 27 
4 27 28 21 15 
4 28 29 26 27 
4 2 6 31 30 
4 30 31 16 17 
4 6 19 29 31 
4 31 29 20 16 
4 2 18 28 30 
4 30 28 21 17 
4 30 31 29 28 

CELL_TYPES 42
9 
9 
9 
9 
9 
9 
9 
9 
9 
9 
9 
9 
9 
9 
9 
9 
9 
9 
9 
9 
9 
9 
9 
9 
9 
9 
9 
9 
9 
9 
9 
9 
9 
9 
9 
9 
9 
9 
9 
9 
9 
9 
POINT_DATA 32
SCALARS GMDS_ID int 1
LOOKUP_TABLE default
0 1 2 3 4 5 6 7 8 9 10 11 12 13 14 15 16 17 18 19 20 21 22 23 24 25 26 27 28 29 30 31 
SCALARS geom_link_dim int 1
LOOKUP_TABLE default
1 1 1 1 1 1 1 1 2 2 2 2 1 1 2 2 2 2 2 2 1 1 2 2 1 1 2 2 3 3 2 2 
SCALARS geom_link_id int 1
LOOKUP_TABLE default
26 28 31 32 25 27 29 30 21 20 16 11 10 9 19 12 14 8 11 16 11 12 20 21 22 21 13 10 5 1 8 14 


CELL_DATA 42
SCALARS GMDS_ID int 1
LOOKUP_TABLE default
0 3 4 6 7 8 10 11 13 14 16 18 19 20 21 23 24 25 26 29 30 31 32 33 34 35 36 37 38 39 40 41 42 43 44 45 46 47 48 49 50 51 

SCALARS geom_link_dim int 1
LOOKUP_TABLE default
0 0 0 0 0 0 0 0 0 0 0 0 0 0 0 0 0 0 0 0 0 0 0 0 0 0 0 0 0 0 0 0 0 0 0 0 0 0 0 0 0 0 

SCALARS geom_link_id int 1
LOOKUP_TABLE default
0 0 0 0 -1 0 0 -1 0 0 0 0 0 -1 -1 0 -1 -1 -1 0 0 0 0 0 0 0 -1 -1 -1 -1 -1 -1 -1 -1 -1 -1 -1 -1 -1 -1 -1 -1 

