# vtk DataFile Version 3.0
Generated by GMDS VTK Writer

ASCII
DATASET UNSTRUCTURED_GRID
POINTS 56 float
0 0 0
0 10 0
10 10 0
10 0 0
0 0 2
0 10 2
10 10 2
10 0 2
0 4 0
0 4 2
10 4 2
10 4 0
3 0 0
3 0 2
3 4 2
3 4 0
3 10 2
3 10 0
10 9 0
10 9 2
3 9 2
3 9 0
0 9 2
0 9 0
8 0 0
8 0 2
8 4 2
8 4 0
8 9 0
8 9 2
8 10 0
8 10 2
1 9 2
1 9 0
1 4 0
1 4 2
1 10 2
1 10 0
1 0 0
1 0 2
2 9 2
2 9 0
2 4 0
2 4 2
2 10 2
2 10 0
2 0 0
2 0 2
6.5 0 0
6.5 0 2
6.5 4 2
6.5 4 0
6.5 9 0
6.5 9 2
6.5 10 0
6.5 10 2

CELLS 81 405
4 16 17 45 44 
4 28 29 53 52 
4 32 33 34 35 
4 40 41 42 43 
4 20 21 15 14 
4 35 32 22 9 
4 0 4 9 8 
4 3 11 27 24 
4 16 17 21 20 
4 48 49 50 51 
4 3 7 10 11 
4 35 34 8 9 
4 18 19 10 11 
4 2 6 19 18 
4 48 51 15 12 
4 43 40 32 35 
4 34 33 23 8 
4 14 20 40 43 
4 12 13 14 15 
4 10 11 27 26 
4 24 27 51 48 
4 43 42 34 35 
4 7 10 26 25 
4 3 7 25 24 
4 32 33 23 22 
4 50 51 15 14 
4 14 15 42 43 
4 42 41 33 34 
4 1 5 22 23 
4 23 22 9 8 
4 15 21 41 42 
4 40 41 33 32 
4 20 21 41 40 
4 24 25 26 27 
4 18 19 29 28 
4 10 19 29 26 
4 11 18 28 27 
4 28 29 26 27 
4 2 6 31 30 
4 6 19 29 31 
4 2 18 28 30 
4 30 31 29 28 
4 36 37 1 5 
4 26 27 51 50 
4 37 33 23 1 
4 49 50 14 13 
4 36 32 22 5 
4 36 37 33 32 
4 25 26 50 49 
4 38 39 4 0 
4 48 49 13 12 
4 39 35 9 4 
4 24 25 49 48 
4 38 34 8 0 
4 38 39 35 34 
4 44 45 37 36 
4 17 21 41 45 
4 45 41 33 37 
4 16 20 40 44 
4 44 40 32 36 
4 44 45 41 40 
4 12 13 47 46 
4 46 47 39 38 
4 13 14 43 47 
4 47 43 35 39 
4 12 15 42 46 
4 46 42 34 38 
4 46 47 43 42 
4 52 53 20 21 
4 26 29 53 50 
4 50 53 20 14 
4 27 28 52 51 
4 51 52 21 15 
4 52 53 50 51 
4 30 31 55 54 
4 54 55 16 17 
4 29 31 55 53 
4 53 55 16 20 
4 28 30 54 52 
4 52 54 17 21 
4 54 55 53 52 

CELL_TYPES 81
9 
9 
9 
9 
9 
9 
9 
9 
9 
9 
9 
9 
9 
9 
9 
9 
9 
9 
9 
9 
9 
9 
9 
9 
9 
9 
9 
9 
9 
9 
9 
9 
9 
9 
9 
9 
9 
9 
9 
9 
9 
9 
9 
9 
9 
9 
9 
9 
9 
9 
9 
9 
9 
9 
9 
9 
9 
9 
9 
9 
9 
9 
9 
9 
9 
9 
9 
9 
9 
9 
9 
9 
9 
9 
9 
9 
9 
9 
9 
9 
9 
POINT_DATA 56
SCALARS GMDS_ID int 1
LOOKUP_TABLE default
0 1 2 3 4 5 6 7 8 9 10 11 12 13 14 15 16 17 18 19 20 21 22 23 24 25 26 27 28 29 30 31 32 33 34 35 36 37 38 39 40 41 42 43 44 45 46 47 48 49 50 51 52 53 54 55 
SCALARS geom_link_dim int 1
LOOKUP_TABLE default
1 1 1 1 1 1 1 1 2 2 2 2 1 1 2 2 2 2 2 2 1 1 2 2 1 1 2 2 3 3 2 2 3 3 1 1 2 2 1 1 3 3 1 1 2 2 1 1 1 1 2 2 3 3 2 2 
SCALARS geom_link_id int 1
LOOKUP_TABLE default
26 28 31 32 25 27 29 30 21 20 16 11 10 9 19 12 14 8 11 16 11 12 20 21 22 21 13 10 5 1 8 14 1 5 4 3 14 8 2 1 1 5 8 7 14 8 6 5 18 17 15 9 5 1 8 14 


CELL_DATA 81
SCALARS GMDS_ID int 1
LOOKUP_TABLE default
0 1 2 3 4 5 6 7 8 9 10 12 13 14 15 16 17 18 19 20 22 23 24 26 27 28 29 30 31 32 33 34 35 37 38 40 42 44 45 47 49 51 52 53 54 55 56 57 58 59 60 61 62 63 64 65 66 67 68 69 70 71 72 73 74 75 76 77 78 79 80 81 82 83 84 85 86 87 88 89 90 

SCALARS geom_link_dim int 1
LOOKUP_TABLE default
0 0 0 0 0 0 0 0 0 0 0 0 0 0 0 0 0 0 0 0 0 0 0 0 0 0 0 0 0 0 0 0 0 0 0 0 0 0 0 0 0 0 0 0 0 0 0 0 0 0 0 0 0 0 0 0 0 0 0 0 0 0 0 0 0 0 0 0 0 0 0 0 0 0 0 0 0 0 0 0 0 

SCALARS geom_link_id int 1
LOOKUP_TABLE default
0 -1 0 0 0 0 0 0 0 -1 0 0 0 0 -1 0 0 0 0 0 -1 0 0 0 0 -1 0 0 0 0 0 0 0 0 0 0 0 0 0 0 0 0 0 -1 0 -1 0 0 -1 0 -1 0 -1 0 0 0 0 0 0 0 0 0 0 0 0 0 0 0 -1 -1 -1 -1 -1 -1 -1 -1 -1 -1 -1 -1 -1 

