# vtk DataFile Version 3.0
Generated by GMDS VTK Writer

ASCII
DATASET UNSTRUCTURED_GRID
POINTS 56 float
0 0 0
0 10 0
10 10 0
10 0 0
0 0 2
0 10 2
10 10 2
10 0 2
1 10 0
1 0 0
1 0 2
1 10 2
10 4 0
10 4 2
1 4 2
1 4 0
0 4 2
0 4 0
2 4 0
2 4 2
2 0 2
2 0 0
2 10 0
2 10 2
3 4 0
3 4 2
3 0 2
3 0 0
3 10 0
3 10 2
1 9 0
1 9 2
0 9 2
0 9 0
2 9 0
2 9 2
10 9 0
10 9 2
3 9 2
3 9 0
5 4 0
5 4 2
5 0 2
5 0 0
5 10 0
5 10 2
5 9 2
5 9 0
6.5 4 0
6.5 4 2
6.5 0 2
6.5 0 0
6.5 10 0
6.5 10 2
6.5 9 2
6.5 9 0

CELLS 81 405
4 2 6 53 52 
4 1 8 30 33 
4 27 26 20 21 
4 21 20 10 9 
4 12 13 7 3 
4 45 46 38 29 
4 33 32 16 17 
4 20 19 14 10 
4 48 49 50 51 
4 9 10 4 0 
4 1 5 32 33 
4 18 19 14 15 
4 26 25 19 20 
4 8 11 5 1 
4 32 31 14 16 
4 15 14 10 9 
4 51 48 40 43 
4 24 25 19 18 
4 3 12 48 51 
4 44 45 29 28 
4 16 14 10 4 
4 17 16 4 0 
4 40 41 42 43 
4 17 15 9 0 
4 15 14 16 17 
4 21 18 15 9 
4 18 19 20 21 
4 5 11 31 32 
4 22 23 11 8 
4 30 31 14 15 
4 43 40 24 27 
4 8 11 31 30 
4 43 42 26 27 
4 27 24 18 21 
4 24 25 26 27 
4 51 50 42 43 
4 28 29 23 22 
4 42 41 25 26 
4 40 41 25 24 
4 33 30 15 17 
4 30 31 32 33 
4 22 23 35 34 
4 34 35 19 18 
4 11 23 35 31 
4 31 35 19 14 
4 8 22 34 30 
4 30 34 18 15 
4 34 35 31 30 
4 2 6 37 36 
4 36 37 13 12 
4 3 7 50 51 
4 50 49 41 42 
4 28 29 38 39 
4 39 38 25 24 
4 7 13 49 50 
4 48 49 41 40 
4 12 13 49 48 
4 23 29 38 35 
4 35 38 25 19 
4 22 28 39 34 
4 34 39 24 18 
4 39 38 35 34 
4 47 46 38 39 
4 44 47 39 28 
4 44 45 46 47 
4 41 46 38 25 
4 40 47 39 24 
4 47 46 41 40 
4 52 53 45 44 
4 6 37 54 53 
4 53 54 46 45 
4 36 37 54 55 
4 55 54 46 47 
4 2 36 55 52 
4 52 55 47 44 
4 52 53 54 55 
4 13 37 54 49 
4 49 54 46 41 
4 12 36 55 48 
4 48 55 47 40 
4 55 54 49 48 

CELL_TYPES 81
9 
9 
9 
9 
9 
9 
9 
9 
9 
9 
9 
9 
9 
9 
9 
9 
9 
9 
9 
9 
9 
9 
9 
9 
9 
9 
9 
9 
9 
9 
9 
9 
9 
9 
9 
9 
9 
9 
9 
9 
9 
9 
9 
9 
9 
9 
9 
9 
9 
9 
9 
9 
9 
9 
9 
9 
9 
9 
9 
9 
9 
9 
9 
9 
9 
9 
9 
9 
9 
9 
9 
9 
9 
9 
9 
9 
9 
9 
9 
9 
9 
POINT_DATA 56
SCALARS GMDS_ID int 1
LOOKUP_TABLE default
0 1 2 3 4 5 6 7 8 9 10 11 12 13 14 15 16 17 18 19 20 21 22 23 24 25 26 27 28 29 30 31 32 33 34 35 36 37 38 39 40 41 42 43 44 45 46 47 48 49 50 51 52 53 54 55 
SCALARS geom_link_dim int 1
LOOKUP_TABLE default
1 1 1 1 1 1 1 1 2 1 1 2 2 2 1 1 2 2 1 1 1 1 2 2 2 2 1 1 2 2 3 3 2 2 3 3 2 2 1 1 2 2 1 1 2 2 1 1 2 2 1 1 2 2 3 3 
SCALARS geom_link_id int 1
LOOKUP_TABLE default
26 28 31 32 25 27 29 30 8 2 1 14 11 16 3 4 20 21 8 7 5 6 8 14 12 19 9 10 8 14 5 1 20 21 5 1 11 16 11 12 18 7 13 14 8 14 15 16 9 15 17 18 8 14 1 5 


CELL_DATA 81
SCALARS GMDS_ID int 1
LOOKUP_TABLE default
0 1 2 3 4 5 6 7 8 9 10 11 12 13 14 16 17 18 19 20 21 23 24 25 26 27 28 29 30 31 32 33 35 36 37 38 39 41 43 45 46 47 48 49 50 51 52 53 54 55 56 57 58 59 60 61 62 63 64 65 66 67 69 71 72 74 76 77 78 79 80 81 82 83 84 85 86 87 88 89 90 

SCALARS geom_link_dim int 1
LOOKUP_TABLE default
0 0 0 0 0 0 0 0 0 0 0 0 0 0 0 0 0 0 0 0 0 0 0 0 0 0 0 0 0 0 0 0 0 0 0 0 0 0 0 0 0 0 0 0 0 0 0 0 0 0 0 0 0 0 0 0 0 0 0 0 0 0 0 0 0 0 0 0 0 0 0 0 0 0 0 0 0 0 0 0 0 

SCALARS geom_link_id int 1
LOOKUP_TABLE default
-1 0 0 0 0 0 0 0 -1 0 0 0 0 0 0 0 -1 0 -1 0 0 0 0 0 0 0 0 0 0 0 0 0 0 0 0 -1 0 0 0 0 0 0 0 0 0 0 0 0 0 0 -1 -1 0 0 -1 -1 -1 0 0 0 0 0 0 0 0 0 0 0 -1 -1 -1 -1 -1 -1 -1 -1 -1 -1 -1 -1 -1 

