# vtk DataFile Version 3.0
Generated by GMDS VTK Writer

ASCII
DATASET UNSTRUCTURED_GRID
POINTS 24 float
0 0 0
0 10 0
10 10 0
10 0 0
0 0 2
0 10 2
10 10 2
10 0 2
0 4 0
0 4 2
10 4 2
10 4 0
3 0 0
3 0 2
3 4 2
3 4 0
3 10 2
3 10 0
10 9 0
10 9 2
3 9 2
3 9 0
0 9 2
0 9 0

CELLS 29 145
4 13 14 9 4 
4 7 10 14 13 
4 2 17 21 18 
4 12 13 4 0 
4 20 21 15 14 
4 3 7 13 12 
4 0 4 9 8 
4 16 17 21 20 
4 19 20 14 10 
4 3 7 10 11 
4 6 16 20 19 
4 18 19 10 11 
4 2 6 19 18 
4 10 11 15 14 
4 14 15 8 9 
4 3 11 15 12 
4 12 15 8 0 
4 12 13 14 15 
4 2 6 16 17 
4 17 16 5 1 
4 18 21 15 11 
4 18 19 20 21 
4 5 16 20 22 
4 22 20 14 9 
4 1 5 22 23 
4 23 22 9 8 
4 1 17 21 23 
4 23 21 15 8 
4 21 20 22 23 

CELL_TYPES 29
9 
9 
9 
9 
9 
9 
9 
9 
9 
9 
9 
9 
9 
9 
9 
9 
9 
9 
9 
9 
9 
9 
9 
9 
9 
9 
9 
9 
9 
POINT_DATA 24
SCALARS GMDS_ID int 1
LOOKUP_TABLE default
0 1 2 3 4 5 6 7 8 9 10 11 12 13 14 15 16 17 18 19 20 21 22 23 
SCALARS geom_link_dim int 1
LOOKUP_TABLE default
1 1 1 1 1 1 1 1 2 2 2 2 1 1 2 2 2 2 2 2 1 1 2 2 
SCALARS geom_link_id int 1
LOOKUP_TABLE default
26 28 31 32 25 27 29 30 21 20 16 11 10 9 19 12 14 8 11 16 11 12 20 21 


CELL_DATA 29
SCALARS GMDS_ID int 1
LOOKUP_TABLE default
0 1 2 3 4 5 6 8 9 10 12 13 14 15 16 17 18 19 22 23 27 28 29 30 31 32 33 34 35 

SCALARS geom_link_dim int 1
LOOKUP_TABLE default
0 0 0 0 0 0 0 0 0 0 0 0 0 0 0 0 0 0 0 0 0 0 0 0 0 0 0 0 0 

SCALARS geom_link_id int 1
LOOKUP_TABLE default
0 0 -1 0 -1 0 0 -1 -1 0 -1 -1 -1 0 0 0 0 0 0 0 -1 -1 -1 -1 -1 -1 -1 -1 -1 

