# vtk DataFile Version 3.0
Generated by GMDS VTK Writer

ASCII
DATASET UNSTRUCTURED_GRID
POINTS 56 float
0 0 0
0 10 0
10 10 0
10 0 0
0 0 2
0 10 2
10 10 2
10 0 2
2 10 0
2 0 0
2 0 2
2 10 2
10 4 0
10 4 2
2 4 2
2 4 0
0 4 2
0 4 0
3 4 0
3 4 2
3 0 2
3 0 0
3 10 0
3 10 2
2 9 0
2 9 2
0 9 2
0 9 0
10 9 0
10 9 2
3 9 2
3 9 0
1 4 0
1 4 2
1 0 2
1 0 0
1 9 0
1 9 2
1 10 0
1 10 2
5 4 0
5 4 2
5 0 2
5 0 0
5 10 0
5 10 2
5 9 2
5 9 0
8 4 0
8 4 2
8 0 2
8 0 0
8 10 0
8 10 2
8 9 2
8 9 0

CELLS 76 380
4 45 46 30 23 
4 2 6 53 52 
4 27 26 16 17 
4 21 20 10 9 
4 12 13 7 3 
4 24 25 37 36 
4 48 49 50 51 
4 20 19 14 10 
4 1 5 26 27 
4 51 48 40 43 
4 18 19 14 15 
4 44 45 23 22 
4 3 12 48 51 
4 32 33 34 35 
4 15 14 10 9 
4 40 41 42 43 
4 24 25 14 15 
4 8 11 25 24 
4 35 32 17 0 
4 43 40 18 21 
4 17 16 4 0 
4 35 34 4 0 
4 43 42 20 21 
4 21 18 15 9 
4 18 19 20 21 
4 51 50 42 43 
4 22 23 11 8 
4 40 41 19 18 
4 34 33 16 4 
4 33 32 17 16 
4 14 15 32 33 
4 42 41 19 20 
4 2 6 29 28 
4 28 29 13 12 
4 3 7 50 51 
4 50 49 41 42 
4 22 23 30 31 
4 31 30 19 18 
4 7 13 49 50 
4 48 49 41 40 
4 12 13 49 48 
4 11 23 30 25 
4 25 30 19 14 
4 8 22 31 24 
4 24 31 18 15 
4 31 30 25 24 
4 36 37 26 27 
4 14 25 37 33 
4 33 37 26 16 
4 15 24 36 32 
4 32 36 27 17 
4 36 37 33 32 
4 8 11 39 38 
4 38 39 5 1 
4 11 25 37 39 
4 39 37 26 5 
4 8 24 36 38 
4 38 36 27 1 
4 38 39 37 36 
4 47 46 30 31 
4 44 47 31 22 
4 44 45 46 47 
4 47 46 41 40 
4 52 53 45 44 
4 6 29 54 53 
4 53 54 46 45 
4 28 29 54 55 
4 55 54 46 47 
4 2 28 55 52 
4 52 55 47 44 
4 52 53 54 55 
4 13 29 54 49 
4 49 54 46 41 
4 12 28 55 48 
4 48 55 47 40 
4 55 54 49 48 

CELL_TYPES 76
9 
9 
9 
9 
9 
9 
9 
9 
9 
9 
9 
9 
9 
9 
9 
9 
9 
9 
9 
9 
9 
9 
9 
9 
9 
9 
9 
9 
9 
9 
9 
9 
9 
9 
9 
9 
9 
9 
9 
9 
9 
9 
9 
9 
9 
9 
9 
9 
9 
9 
9 
9 
9 
9 
9 
9 
9 
9 
9 
9 
9 
9 
9 
9 
9 
9 
9 
9 
9 
9 
9 
9 
9 
9 
9 
9 
POINT_DATA 56
SCALARS GMDS_ID int 1
LOOKUP_TABLE default
0 1 2 3 4 5 6 7 8 9 10 11 12 13 14 15 16 17 18 19 20 21 22 23 24 25 26 27 28 29 30 31 32 33 34 35 36 37 38 39 40 41 42 43 44 45 46 47 48 49 50 51 52 53 54 55 
SCALARS geom_link_dim int 1
LOOKUP_TABLE default
1 1 1 1 1 1 1 1 2 1 1 2 2 2 1 1 2 2 2 2 1 1 2 2 3 3 2 2 2 2 1 1 1 1 1 1 3 3 2 2 2 2 1 1 2 2 1 1 2 2 1 1 2 2 3 3 
SCALARS geom_link_id int 1
LOOKUP_TABLE default
26 28 31 32 25 27 29 30 8 6 5 14 11 16 7 8 20 21 12 19 9 10 8 14 5 1 20 21 11 16 11 12 4 3 1 2 5 1 8 14 18 7 13 14 8 14 15 16 10 13 21 22 8 14 1 5 


CELL_DATA 76
SCALARS GMDS_ID int 1
LOOKUP_TABLE default
0 1 2 3 4 5 6 7 8 10 11 12 14 15 16 17 18 19 20 21 23 24 26 27 28 29 30 31 32 34 35 37 38 39 40 41 42 43 44 45 46 47 48 49 50 51 52 53 54 55 56 57 58 59 60 61 62 63 64 66 68 69 74 75 76 77 78 79 80 81 82 83 84 85 86 87 

SCALARS geom_link_dim int 1
LOOKUP_TABLE default
0 0 0 0 0 0 0 0 0 0 0 0 0 0 0 0 0 0 0 0 0 0 0 0 0 0 0 0 0 0 0 0 0 0 0 0 0 0 0 0 0 0 0 0 0 0 0 0 0 0 0 0 0 0 0 0 0 0 0 0 0 0 0 0 0 0 0 0 0 0 0 0 0 0 0 0 

SCALARS geom_link_id int 1
LOOKUP_TABLE default
0 0 0 0 0 0 0 0 0 0 0 0 0 0 0 0 0 0 0 0 0 0 0 0 0 0 0 0 0 0 0 0 0 0 0 0 0 0 0 0 0 0 0 0 0 0 0 0 0 0 0 0 0 0 0 0 0 0 0 0 0 0 0 0 0 0 0 0 0 0 0 0 0 0 0 0 

