# vtk DataFile Version 3.0
Generated by GMDS VTK Writer

ASCII
DATASET UNSTRUCTURED_GRID
POINTS 80 float
0 0 0
0 10 0
10 10 0
10 0 0
0 0 2
0 10 2
10 10 2
10 0 2
0 4 0
0 4 2
10 4 2
10 4 0
3 0 0
3 0 2
3 4 2
3 4 0
3 10 2
3 10 0
10 9 0
10 9 2
3 9 2
3 9 0
0 9 2
0 9 0
8 0 0
8 0 2
8 4 2
8 4 0
8 9 0
8 9 2
8 10 0
8 10 2
1 9 2
1 9 0
1 4 0
1 4 2
1 10 2
1 10 0
1 0 0
1 0 2
2 9 2
2 9 0
2 4 0
2 4 2
2 10 2
2 10 0
2 0 0
2 0 2
6.5 0 0
6.5 0 2
6.5 4 2
6.5 4 0
6.5 9 0
6.5 9 2
6.5 10 0
6.5 10 2
1 6 2
1 6 0
0 6 0
0 6 2
10 6 2
10 6 0
8 6 0
8 6 2
2 6 2
2 6 0
6.5 6 2
6.5 6 0
3 6 0
3 6 2
5 0 0
5 0 2
5 4 2
5 4 0
5 10 0
5 10 2
5 9 2
5 9 0
5 6 0
5 6 2

CELLS 105 525
4 16 17 45 44 
4 28 29 53 52 
4 72 73 78 79 
4 50 66 79 72 
4 0 4 9 8 
4 3 11 27 24 
4 16 17 21 20 
4 48 49 50 51 
4 3 7 10 11 
4 61 62 28 18 
4 35 34 8 9 
4 66 67 78 79 
4 2 6 19 18 
4 51 67 78 73 
4 74 75 76 77 
4 12 13 14 15 
4 10 11 27 26 
4 11 27 62 61 
4 48 49 71 70 
4 43 42 34 35 
4 7 10 26 25 
4 60 61 18 19 
4 3 7 25 24 
4 32 33 23 22 
4 14 15 42 43 
4 77 74 17 21 
4 1 5 22 23 
4 52 54 74 77 
4 77 76 20 21 
4 40 41 33 32 
4 20 21 41 40 
4 10 11 61 60 
4 24 25 26 27 
4 18 19 29 28 
4 56 57 58 59 
4 52 53 76 77 
4 59 56 32 22 
4 76 75 16 20 
4 9 35 56 59 
4 53 55 75 76 
4 2 6 31 30 
4 58 59 22 23 
4 6 19 29 31 
4 8 9 59 58 
4 2 18 28 30 
4 58 57 33 23 
4 30 31 29 28 
4 36 37 1 5 
4 37 33 23 1 
4 36 32 22 5 
4 36 37 33 32 
4 49 50 72 71 
4 38 39 4 0 
4 39 35 9 4 
4 38 34 8 0 
4 38 39 35 34 
4 44 45 37 36 
4 17 21 41 45 
4 45 41 33 37 
4 16 20 40 44 
4 44 40 32 36 
4 44 45 41 40 
4 12 13 47 46 
4 8 34 57 58 
4 13 14 43 47 
4 57 56 32 33 
4 12 15 42 46 
4 34 35 56 57 
4 46 47 43 42 
4 74 75 16 17 
4 54 55 75 74 
4 70 71 72 73 
4 48 51 73 70 
4 30 31 55 54 
4 29 31 55 53 
4 28 30 54 52 
4 54 55 53 52 
4 26 27 62 63 
4 63 62 28 29 
4 10 26 63 60 
4 60 63 29 19 
4 60 61 62 63 
4 42 43 64 65 
4 65 64 40 41 
4 34 42 65 57 
4 57 65 41 33 
4 35 43 64 56 
4 56 64 40 32 
4 64 65 57 56 
4 50 51 67 66 
4 66 67 52 53 
4 14 15 68 69 
4 69 68 21 20 
4 15 42 65 68 
4 68 65 41 21 
4 14 43 64 69 
4 69 64 40 20 
4 69 68 65 64 
4 62 67 52 28 
4 50 51 73 72 
4 63 66 53 29 
4 63 62 67 66 
4 52 67 78 77 
4 53 66 79 76 
4 79 78 77 76 

CELL_TYPES 105
9 
9 
9 
9 
9 
9 
9 
9 
9 
9 
9 
9 
9 
9 
9 
9 
9 
9 
9 
9 
9 
9 
9 
9 
9 
9 
9 
9 
9 
9 
9 
9 
9 
9 
9 
9 
9 
9 
9 
9 
9 
9 
9 
9 
9 
9 
9 
9 
9 
9 
9 
9 
9 
9 
9 
9 
9 
9 
9 
9 
9 
9 
9 
9 
9 
9 
9 
9 
9 
9 
9 
9 
9 
9 
9 
9 
9 
9 
9 
9 
9 
9 
9 
9 
9 
9 
9 
9 
9 
9 
9 
9 
9 
9 
9 
9 
9 
9 
9 
9 
9 
9 
9 
9 
9 
POINT_DATA 80
SCALARS GMDS_ID int 1
LOOKUP_TABLE default
0 1 2 3 4 5 6 7 8 9 10 11 12 13 14 15 16 17 18 19 20 21 22 23 24 25 26 27 28 29 30 31 32 33 34 35 36 37 38 39 40 41 42 43 44 45 46 47 48 49 50 51 52 53 54 55 56 57 58 59 60 61 62 63 64 65 66 67 68 69 70 71 72 73 74 75 76 77 78 79 
SCALARS geom_link_dim int 1
LOOKUP_TABLE default
1 1 1 1 1 1 1 1 2 2 2 2 1 1 2 2 2 2 2 2 1 1 2 2 1 1 2 2 3 3 2 2 3 3 1 1 2 2 1 1 3 3 1 1 2 2 1 1 1 1 2 2 3 3 2 2 3 3 2 2 2 2 1 1 3 3 1 1 2 2 1 1 2 2 2 2 1 1 2 2 
SCALARS geom_link_id int 1
LOOKUP_TABLE default
26 28 31 32 25 27 29 30 21 20 16 11 10 9 19 12 14 8 11 16 11 12 20 21 22 21 13 10 5 1 8 14 1 5 4 3 14 8 2 1 1 5 8 7 14 8 6 5 18 17 15 9 5 1 8 14 1 5 21 20 16 11 24 23 1 5 19 20 12 19 14 13 7 18 8 14 15 16 18 7 


CELL_DATA 105
SCALARS GMDS_ID int 1
LOOKUP_TABLE default
0 1 2 4 6 7 8 9 10 11 12 13 14 17 18 19 20 21 22 23 24 25 26 27 29 30 31 32 33 34 35 36 37 38 39 40 41 42 43 44 45 46 47 48 49 50 51 52 54 56 57 58 59 61 63 64 65 66 67 68 69 70 71 72 73 74 75 76 77 79 80 81 83 84 86 88 90 91 92 93 94 95 96 97 98 99 100 101 102 103 104 107 108 112 113 114 115 116 118 119 120 121 122 124 126 

SCALARS geom_link_dim int 1
LOOKUP_TABLE default
3 3 3 3 3 3 4 3 3 3 4 4 3 3 4 3 3 3 3 3 3 3 3 4 4 3 3 3 3 4 4 3 3 4 4 4 3 3 3 3 3 3 3 3 3 3 4 3 3 3 4 3 3 3 3 3 3 3 3 3 3 4 3 3 3 4 3 4 3 3 3 3 3 3 3 3 4 3 4 3 3 4 4 4 3 3 3 3 4 3 4 3 3 3 3 3 3 4 3 4 3 3 3 3 3 

SCALARS geom_link_id int 1
LOOKUP_TABLE default
7 5 3 1 2 5 1 4 8 5 1 1 8 5 1 13 6 5 11 16 1 8 15 1 1 5 2 5 12 1 1 8 6 1 1 1 1 1 1 1 7 2 1 2 5 5 1 7 5 1 1 1 18 1 5 10 7 5 5 1 1 1 17 5 1 1 5 1 9 7 7 3 5 7 1 5 1 6 1 1 1 1 1 1 5 5 1 1 1 4 1 13 13 5 5 1 1 1 5 1 1 14 5 1 3 

