# vtk DataFile Version 3.0
Generated by GMDS VTK Writer

ASCII
DATASET UNSTRUCTURED_GRID
POINTS 40 float
0 0 0
0 10 0
10 10 0
10 0 0
0 0 2
0 10 2
10 10 2
10 0 2
1 10 0
1 0 0
1 0 2
1 10 2
10 4 0
10 4 2
1 4 2
1 4 0
0 4 2
0 4 0
2 4 0
2 4 2
2 0 2
2 0 0
2 10 0
2 10 2
3 4 0
3 4 2
3 0 2
3 0 0
3 10 0
3 10 2
1 9 0
1 9 2
0 9 2
0 9 0
2 9 0
2 9 2
10 9 0
10 9 2
3 9 2
3 9 0

CELLS 55 275
4 3 12 24 27 
4 1 8 30 33 
4 27 26 20 21 
4 21 20 10 9 
4 12 13 7 3 
4 33 32 16 17 
4 20 19 14 10 
4 3 7 26 27 
4 9 10 4 0 
4 1 5 32 33 
4 18 19 14 15 
4 26 25 19 20 
4 8 11 5 1 
4 32 31 14 16 
4 15 14 10 9 
4 7 13 25 26 
4 24 25 19 18 
4 12 13 25 24 
4 16 14 10 4 
4 17 16 4 0 
4 17 15 9 0 
4 15 14 16 17 
4 21 18 15 9 
4 18 19 20 21 
4 5 11 31 32 
4 22 23 11 8 
4 30 31 14 15 
4 8 11 31 30 
4 27 24 18 21 
4 24 25 26 27 
4 2 6 29 28 
4 28 29 23 22 
4 33 30 15 17 
4 30 31 32 33 
4 22 23 35 34 
4 34 35 19 18 
4 11 23 35 31 
4 31 35 19 14 
4 8 22 34 30 
4 30 34 18 15 
4 34 35 31 30 
4 2 6 37 36 
4 36 37 13 12 
4 6 29 38 37 
4 37 38 25 13 
4 28 29 38 39 
4 39 38 25 24 
4 2 28 39 36 
4 36 39 24 12 
4 36 37 38 39 
4 23 29 38 35 
4 35 38 25 19 
4 22 28 39 34 
4 34 39 24 18 
4 39 38 35 34 

CELL_TYPES 55
9 
9 
9 
9 
9 
9 
9 
9 
9 
9 
9 
9 
9 
9 
9 
9 
9 
9 
9 
9 
9 
9 
9 
9 
9 
9 
9 
9 
9 
9 
9 
9 
9 
9 
9 
9 
9 
9 
9 
9 
9 
9 
9 
9 
9 
9 
9 
9 
9 
9 
9 
9 
9 
9 
9 
POINT_DATA 40
SCALARS GMDS_ID int 1
LOOKUP_TABLE default
0 1 2 3 4 5 6 7 8 9 10 11 12 13 14 15 16 17 18 19 20 21 22 23 24 25 26 27 28 29 30 31 32 33 34 35 36 37 38 39 
SCALARS geom_link_dim int 1
LOOKUP_TABLE default
1 1 1 1 1 1 1 1 2 1 1 2 2 2 1 1 2 2 1 1 1 1 2 2 2 2 1 1 2 2 3 3 2 2 3 3 2 2 1 1 
SCALARS geom_link_id int 1
LOOKUP_TABLE default
26 28 31 32 25 27 29 30 8 2 1 14 11 16 3 4 20 21 8 7 5 6 8 14 12 19 9 10 8 14 5 1 20 21 5 1 11 16 11 12 


CELL_DATA 55
SCALARS GMDS_ID int 1
LOOKUP_TABLE default
0 1 2 3 4 6 7 8 9 10 11 12 13 14 16 17 18 19 21 23 25 26 27 28 29 30 31 33 36 37 38 39 45 46 47 48 49 50 51 52 53 54 55 56 57 58 59 60 61 62 63 64 65 66 67 

SCALARS geom_link_dim int 1
LOOKUP_TABLE default
0 0 0 0 0 0 0 0 0 0 0 0 0 0 0 0 0 0 0 0 0 0 0 0 0 0 0 0 0 0 0 0 0 0 0 0 0 0 0 0 0 0 0 0 0 0 0 0 0 0 0 0 0 0 0 

SCALARS geom_link_id int 1
LOOKUP_TABLE default
0 -1 0 0 0 -1 0 0 0 -1 0 0 0 -1 0 0 0 0 0 0 0 0 0 0 -1 0 -1 -1 0 0 0 0 -1 -1 -1 -1 -1 -1 -1 -1 -1 -1 -1 -1 -1 -1 -1 -1 -1 -1 -1 -1 -1 -1 -1 

