# vtk DataFile Version 3.0
Generated by GMDS VTK Writer

ASCII
DATASET UNSTRUCTURED_GRID
POINTS 32 float
0 0 0
0 10 0
10 10 0
10 0 0
0 0 10
0 10 10
10 10 10
10 0 10
0 6 0
10 6 0
10 6 10
0 6 10
0 10 7
10 10 7
10 6 7
0 6 7
10 0 7
0 0 7
0 3 0
10 3 0
10 3 7
0 3 7
10 3 10
0 3 10
0 10 3
10 10 3
10 6 3
0 6 3
0 3 3
10 3 3
0 0 3
10 0 3

CELLS 9 81
8 12 13 14 15 5 6 10 11 
8 24 25 26 27 12 13 14 15 
8 1 2 9 8 24 25 26 27 
8 17 16 7 4 21 20 22 23 
8 21 20 22 23 15 14 10 11 
8 18 19 9 8 28 29 26 27 
8 28 29 26 27 21 20 14 15 
8 0 3 19 18 30 31 29 28 
8 30 31 29 28 17 16 20 21 

CELL_TYPES 9
12 
12 
12 
12 
12 
12 
12 
12 
12 
POINT_DATA 32
SCALARS GMDS_ID int 1
LOOKUP_TABLE default
0 1 2 3 4 5 6 7 8 9 10 11 12 13 14 15 16 17 18 19 20 21 22 23 24 25 26 27 28 29 30 31 
SCALARS geom_link_dim int 1
LOOKUP_TABLE default
0 1 0 1 0 1 1 1 2 2 2 2 1 2 3 3 2 0 2 2 3 3 2 2 2 1 3 3 3 3 0 2 
SCALARS geom_link_id int 1
LOOKUP_TABLE default
-1 7 -1 30 -1 2 14 16 23 30 34 28 6 29 2 5 27 -1 23 30 2 5 34 28 24 23 2 5 5 2 -1 27 


CELL_DATA 9
SCALARS GMDS_ID int 1
LOOKUP_TABLE default
3 4 5 6 7 8 9 10 11 

SCALARS is_in int 1
LOOKUP_TABLE default
1 1 1 1 1 1 1 1 1 

SCALARS geom_link_dim int 1
LOOKUP_TABLE default
0 0 0 0 0 0 0 0 0 

SCALARS geom_link_id int 1
LOOKUP_TABLE default
0 -1 -1 0 0 -1 -1 -1 -1 

