# vtk DataFile Version 3.0
Generated by GMDS VTK Writer

ASCII
DATASET UNSTRUCTURED_GRID
POINTS 18 float
0 0 0
0 10 0
10 10 0
10 0 0
0 0 10
0 10 10
10 10 10
10 0 10
0 6 0
10 6 0
10 6 10
0 6 10
0 10 7
10 10 7
10 6 7
0 6 7
10 0 7
0 0 7

CELLS 4 36
8 1 2 9 8 12 13 14 15 
8 12 13 14 15 5 6 10 11 
8 8 9 3 0 15 14 16 17 
8 15 14 16 17 11 10 7 4 

CELL_TYPES 4
12 
12 
12 
12 
POINT_DATA 18
SCALARS GMDS_ID int 1
LOOKUP_TABLE default
0 1 2 3 4 5 6 7 8 9 10 11 12 13 14 15 16 17 
SCALARS geom_link_dim int 1
LOOKUP_TABLE default
0 1 0 1 0 1 1 1 2 2 2 2 1 2 3 3 2 0 
SCALARS geom_link_id int 1
LOOKUP_TABLE default
-1 7 -1 30 -1 2 14 16 23 30 34 28 6 29 2 5 27 -1 


CELL_DATA 4
SCALARS GMDS_ID int 1
LOOKUP_TABLE default
0 3 4 5 

SCALARS is_in int 1
LOOKUP_TABLE default
1 1 1 1 

SCALARS geom_link_dim int 1
LOOKUP_TABLE default
0 0 0 0 

SCALARS geom_link_id int 1
LOOKUP_TABLE default
-1 -1 -1 -1 

