# vtk DataFile Version 3.0
Generated by GMDS VTK Writer

ASCII
DATASET UNSTRUCTURED_GRID
POINTS 32 float
0 0 0
0 10 0
10 10 0
10 0 0
0 0 10
0 10 10
10 10 10
10 0 10
0 0 7
10 0 7
10 10 7
0 10 7
0 5 0
10 5 0
10 5 7
0 5 7
10 5 10
0 5 10
0 3 0
10 3 0
10 3 7
0 3 7
10 3 10
0 3 10
0 5 4
10 5 4
10 10 4
0 10 4
0 3 4
10 3 4
0 0 4
10 0 4

CELLS 9 81
8 24 25 26 27 15 14 10 11 
8 12 13 2 1 24 25 26 27 
8 15 14 16 17 11 10 6 5 
8 8 9 7 4 21 20 22 23 
8 21 20 22 23 15 14 16 17 
8 18 19 13 12 28 29 25 24 
8 28 29 25 24 21 20 14 15 
8 0 3 19 18 30 31 29 28 
8 30 31 29 28 8 9 20 21 

CELL_TYPES 9
12 
12 
12 
12 
12 
12 
12 
12 
12 
POINT_DATA 32
SCALARS GMDS_ID int 1
LOOKUP_TABLE default
0 1 2 3 4 5 6 7 8 9 10 11 12 13 14 15 16 17 18 19 20 21 22 23 24 25 26 27 28 29 30 31 
SCALARS geom_link_dim int 1
LOOKUP_TABLE default
0 1 0 1 0 1 1 1 0 2 2 1 2 2 3 3 2 2 2 2 3 3 2 2 3 3 2 2 1 1 0 2 
SCALARS geom_link_id int 1
LOOKUP_TABLE default
-1 7 -1 30 -1 2 14 16 -1 27 29 6 23 30 2 5 34 28 23 30 2 5 34 28 5 2 29 24 10 37 -1 27 


CELL_DATA 9
SCALARS GMDS_ID int 1
LOOKUP_TABLE default
0 4 5 6 7 8 9 10 11 

SCALARS is_in int 1
LOOKUP_TABLE default
1 1 1 1 1 1 1 1 1 

SCALARS geom_link_dim int 1
LOOKUP_TABLE default
0 0 0 0 0 0 0 0 0 

SCALARS geom_link_id int 1
LOOKUP_TABLE default
-1 -1 0 0 0 -1 -1 -1 -1 

