# vtk DataFile Version 3.0
Generated by GMDS VTK Writer

ASCII
DATASET UNSTRUCTURED_GRID
POINTS 24 float
0 0 0
0 10 0
10 10 0
10 0 0
0 0 10
0 10 10
10 10 10
10 0 10
0 0 7
10 0 7
10 10 7
0 10 7
0 5 0
10 5 0
10 5 7
0 5 7
10 5 10
0 5 10
0 3 0
10 3 0
10 3 7
0 3 7
10 3 10
0 3 10

CELLS 6 54
8 18 19 20 21 12 13 14 15 
8 0 3 9 8 18 19 20 21 
8 12 13 14 15 1 2 10 11 
8 15 14 16 17 11 10 6 5 
8 8 9 7 4 21 20 22 23 
8 21 20 22 23 15 14 16 17 

CELL_TYPES 6
12 
12 
12 
12 
12 
12 
POINT_DATA 24
SCALARS GMDS_ID int 1
LOOKUP_TABLE default
0 1 2 3 4 5 6 7 8 9 10 11 12 13 14 15 16 17 18 19 20 21 22 23 
SCALARS geom_link_dim int 1
LOOKUP_TABLE default
0 1 0 1 0 1 1 1 0 2 2 1 2 2 3 3 2 2 2 2 3 3 2 2 
SCALARS geom_link_id int 1
LOOKUP_TABLE default
-1 7 -1 30 -1 2 14 16 -1 27 29 6 23 30 2 5 34 28 23 30 2 5 34 28 


CELL_DATA 6
SCALARS GMDS_ID int 1
LOOKUP_TABLE default
1 2 3 5 6 7 

SCALARS is_in int 1
LOOKUP_TABLE default
1 1 1 1 1 1 

SCALARS geom_link_dim int 1
LOOKUP_TABLE default
0 0 0 0 0 0 

SCALARS geom_link_id int 1
LOOKUP_TABLE default
-1 -1 0 0 -1 -1 

