# vtk DataFile Version 3.0
Generated by GMDS VTK Writer

ASCII
DATASET UNSTRUCTURED_GRID
POINTS 36 float
0 0 0
0 10 0
10 10 0
10 0 0
0 0 10
0 10 10
10 10 10
10 0 10
0 0 9
10 0 9
10 10 9
0 10 9
0 5 0
10 5 0
10 5 9
0 5 9
10 5 10
0 5 10
3 0 0
3 0 9
3 5 9
3 5 0
3 10 9
3 10 0
3 0 10
3 5 10
3 10 10
0 0 7
0 5 7
3 5 7
3 0 7
10 5 7
10 0 7
0 10 7
3 10 7
10 10 7

CELLS 75 225
2 20 14
2 18 30
2 15 20
2 0 27
2 0 18
2 21 29
2 18 3
2 12 28
2 3 13
2 13 2
2 12 1
2 0 12
2 8 4
2 9 7
2 10 6
2 11 5
2 27 8
2 8 19
2 27 28
2 19 9
2 9 14
2 14 10
2 8 15
2 15 11
2 29 20
2 30 19
2 7 16
2 16 6
2 4 17
2 17 5
2 16 14
2 28 15
2 17 15
2 12 21
2 21 13
2 19 20
2 18 21
2 11 22
2 22 10
2 1 23
2 23 2
2 22 20
2 23 21
2 4 24
2 24 7
2 17 25
2 25 16
2 24 19
2 20 25
2 24 25
2 5 26
2 26 6
2 26 22
2 26 25
2 28 29
2 30 29
2 27 30
2 13 31
2 31 14
2 3 32
2 32 9
2 31 29
2 32 31
2 32 30
2 1 33
2 33 11
2 23 34
2 34 22
2 33 28
2 29 34
2 33 34
2 2 35
2 35 10
2 35 31
2 35 34

CELL_TYPES 75
3 
3 
3 
3 
3 
3 
3 
3 
3 
3 
3 
3 
3 
3 
3 
3 
3 
3 
3 
3 
3 
3 
3 
3 
3 
3 
3 
3 
3 
3 
3 
3 
3 
3 
3 
3 
3 
3 
3 
3 
3 
3 
3 
3 
3 
3 
3 
3 
3 
3 
3 
3 
3 
3 
3 
3 
3 
3 
3 
3 
3 
3 
3 
3 
3 
3 
3 
3 
3 
3 
3 
3 
3 
3 
3 
POINT_DATA 36
SCALARS GMDS_ID int 1
LOOKUP_TABLE default
0 1 2 3 4 5 6 7 8 9 10 11 12 13 14 15 16 17 18 19 20 21 22 23 24 25 26 27 28 29 30 31 32 33 34 35 
SCALARS geom_link_dim int 1
LOOKUP_TABLE default
0 1 0 1 0 1 1 1 0 2 2 1 2 2 3 3 2 2 2 3 0 3 1 2 2 3 2 0 3 0 3 3 2 1 1 2 
SCALARS geom_link_id int 1
LOOKUP_TABLE default
-1 7 -1 30 -1 2 14 16 -1 27 29 3 23 30 2 5 34 28 26 14 0 3 24 22 25 4 19 -1 5 -1 14 2 27 6 25 29 


CELL_DATA 75
SCALARS GMDS_ID int 1
LOOKUP_TABLE default
0 1 2 3 4 5 6 7 8 9 10 11 13 15 17 19 20 21 22 23 24 25 26 27 28 30 32 33 34 35 36 37 38 39 40 42 44 45 46 47 48 49 51 52 53 54 55 56 57 58 59 60 61 62 63 64 65 66 67 68 69 70 71 72 73 74 75 76 77 78 79 80 81 82 83 

SCALARS geom_link_dim int 1
LOOKUP_TABLE default
0 0 0 0 0 0 0 0 0 0 0 0 0 2 0 2 0 0 0 0 0 0 0 0 0 0 2 2 0 0 0 0 0 0 0 0 0 2 0 0 0 0 0 0 0 0 0 0 0 0 2 2 0 0 0 0 0 0 0 2 2 0 0 0 2 0 0 2 0 0 2 0 0 0 0 

SCALARS geom_link_id int 1
LOOKUP_TABLE default
0 -1 0 -1 0 -1 0 -1 0 0 0 0 0 27 0 63 -1 0 -1 0 0 0 0 0 -1 -1 34 34 0 0 0 -1 0 0 0 0 0 21 0 0 0 0 0 0 0 0 0 0 0 0 19 19 0 0 -1 -1 -1 -1 -1 27 27 -1 -1 -1 24 -1 -1 43 -1 -1 31 -1 -1 -1 -1 

