# vtk DataFile Version 3.0
Generated by GMDS VTK Writer

ASCII
DATASET UNSTRUCTURED_GRID
POINTS 12 float
0 0 0
0 10 0
10 10 0
10 0 0
0 0 10
0 10 10
10 10 10
10 0 10
0 6 0
10 6 0
10 6 10
0 6 10

CELLS 20 60
2 1 2
2 3 0
2 5 6
2 7 4
2 0 4
2 1 5
2 2 6
2 3 7
2 1 8
2 8 0
2 2 9
2 9 3
2 6 10
2 10 7
2 5 11
2 11 4
2 8 9
2 9 10
2 11 10
2 8 11

CELL_TYPES 20
3 
3 
3 
3 
3 
3 
3 
3 
3 
3 
3 
3 
3 
3 
3 
3 
3 
3 
3 
3 
POINT_DATA 12
SCALARS GMDS_ID int 1
LOOKUP_TABLE default
0 1 2 3 4 5 6 7 8 9 10 11 
SCALARS geom_link_dim int 1
LOOKUP_TABLE default
0 1 0 1 0 1 1 1 2 2 2 2 
SCALARS geom_link_id int 1
LOOKUP_TABLE default
-1 7 -1 30 -1 2 14 16 23 30 34 28 


CELL_DATA 20
SCALARS GMDS_ID int 1
LOOKUP_TABLE default
1 3 5 7 8 9 10 11 12 13 14 15 16 17 18 19 20 21 22 23 

SCALARS geom_link_dim int 1
LOOKUP_TABLE default
0 0 2 0 0 0 0 2 0 0 0 0 2 2 0 0 0 0 0 0 

SCALARS geom_link_id int 1
LOOKUP_TABLE default
0 0 19 0 0 0 0 27 -1 -1 -1 -1 34 34 -1 -1 -1 -1 -1 -1 

