# vtk DataFile Version 3.0
Generated by GMDS VTK Writer

ASCII
DATASET UNSTRUCTURED_GRID
POINTS 32 float
0 0 0
0 10 0
10 10 0
10 0 0
0 0 10
0 10 10
10 10 10
10 0 10
0 6 0
10 6 0
10 6 10
0 6 10
0 10 7
10 10 7
10 6 7
0 6 7
10 0 7
0 0 7
0 3 0
10 3 0
10 3 7
0 3 7
10 3 10
0 3 10
0 10 3
10 10 3
10 6 3
0 6 3
0 3 3
10 3 3
0 0 3
10 0 3

CELLS 64 192
2 1 2
2 13 6
2 3 0
2 5 6
2 12 5
2 7 4
2 0 18
2 20 14
2 16 20
2 18 8
2 1 8
2 9 26
2 2 9
2 2 25
2 6 10
2 1 24
2 5 11
2 24 12
2 8 9
2 3 19
2 11 10
2 19 9
2 14 10
2 15 11
2 12 13
2 13 14
2 15 14
2 12 15
2 16 7
2 17 4
2 25 13
2 17 16
2 26 14
2 17 21
2 21 15
2 18 19
2 20 21
2 7 22
2 22 10
2 4 23
2 23 11
2 22 20
2 23 22
2 23 21
2 8 27
2 27 15
2 24 25
2 25 26
2 27 26
2 24 27
2 18 28
2 28 21
2 19 29
2 29 20
2 28 29
2 26 29
2 27 28
2 0 30
2 30 17
2 3 31
2 31 16
2 30 31
2 31 29
2 30 28

CELL_TYPES 64
3 
3 
3 
3 
3 
3 
3 
3 
3 
3 
3 
3 
3 
3 
3 
3 
3 
3 
3 
3 
3 
3 
3 
3 
3 
3 
3 
3 
3 
3 
3 
3 
3 
3 
3 
3 
3 
3 
3 
3 
3 
3 
3 
3 
3 
3 
3 
3 
3 
3 
3 
3 
3 
3 
3 
3 
3 
3 
3 
3 
3 
3 
3 
3 
POINT_DATA 32
SCALARS GMDS_ID int 1
LOOKUP_TABLE default
0 1 2 3 4 5 6 7 8 9 10 11 12 13 14 15 16 17 18 19 20 21 22 23 24 25 26 27 28 29 30 31 
SCALARS geom_link_dim int 1
LOOKUP_TABLE default
0 1 0 1 0 1 1 1 2 2 2 2 1 2 3 3 2 0 2 2 3 3 2 2 2 1 3 3 3 3 0 2 
SCALARS geom_link_id int 1
LOOKUP_TABLE default
-1 7 -1 30 -1 2 14 16 23 30 34 28 6 29 2 5 27 -1 23 30 2 5 34 28 24 23 2 5 5 2 -1 27 


CELL_DATA 64
SCALARS GMDS_ID int 1
LOOKUP_TABLE default
1 2 3 5 6 7 8 9 10 11 12 13 14 15 16 17 18 19 20 21 22 23 25 27 28 29 30 31 33 35 36 37 38 39 40 41 43 45 46 47 48 49 50 51 52 53 54 55 56 57 58 59 60 61 62 63 64 65 66 67 68 69 70 71 

SCALARS geom_link_dim int 1
LOOKUP_TABLE default
0 2 0 2 0 0 0 0 0 0 0 0 0 0 0 2 0 2 0 0 0 0 0 0 0 0 0 0 2 0 2 0 0 0 0 0 0 0 0 0 0 0 0 0 0 0 0 0 0 0 0 0 0 0 0 0 0 0 0 2 2 0 0 0 

SCALARS geom_link_id int 1
LOOKUP_TABLE default
0 29 0 19 0 0 0 0 0 0 0 -1 0 -1 0 24 0 24 0 0 0 0 0 0 0 0 0 0 27 0 29 0 -1 0 0 0 0 0 0 0 0 0 0 0 -1 -1 -1 -1 -1 -1 -1 -1 -1 -1 -1 -1 -1 -1 -1 27 27 -1 -1 -1 

