# vtk DataFile Version 3.0
Generated by GMDS VTK Writer

ASCII
DATASET UNSTRUCTURED_GRID
POINTS 32 float
0 0 0
0 10 0
10 10 0
10 0 0
0 0 10
0 10 10
10 10 10
10 0 10
0 0 7
10 0 7
10 10 7
0 10 7
0 5 0
10 5 0
10 5 7
0 5 7
10 5 10
0 5 10
0 3 0
10 3 0
10 3 7
0 3 7
10 3 10
0 3 10
0 5 4
10 5 4
10 10 4
0 10 4
0 3 4
10 3 4
0 0 4
10 0 4

CELLS 64 192
2 20 14
2 1 2
2 9 20
2 3 0
2 0 18
2 5 6
2 18 12
2 7 4
2 13 25
2 13 2
2 12 1
2 2 26
2 8 4
2 9 7
2 10 6
2 11 5
2 8 9
2 3 19
2 11 10
2 19 13
2 25 14
2 14 10
2 26 10
2 15 11
2 12 13
2 15 14
2 12 24
2 16 6
2 24 15
2 17 5
2 16 14
2 17 16
2 17 15
2 8 21
2 21 15
2 18 19
2 21 20
2 7 22
2 22 16
2 4 23
2 23 17
2 22 20
2 23 22
2 23 21
2 1 27
2 27 11
2 24 25
2 26 25
2 27 26
2 27 24
2 18 28
2 28 21
2 19 29
2 29 20
2 28 29
2 25 29
2 24 28
2 0 30
2 30 8
2 3 31
2 31 9
2 30 31
2 31 29
2 30 28

CELL_TYPES 64
3 
3 
3 
3 
3 
3 
3 
3 
3 
3 
3 
3 
3 
3 
3 
3 
3 
3 
3 
3 
3 
3 
3 
3 
3 
3 
3 
3 
3 
3 
3 
3 
3 
3 
3 
3 
3 
3 
3 
3 
3 
3 
3 
3 
3 
3 
3 
3 
3 
3 
3 
3 
3 
3 
3 
3 
3 
3 
3 
3 
3 
3 
3 
3 
POINT_DATA 32
SCALARS GMDS_ID int 1
LOOKUP_TABLE default
0 1 2 3 4 5 6 7 8 9 10 11 12 13 14 15 16 17 18 19 20 21 22 23 24 25 26 27 28 29 30 31 
SCALARS geom_link_dim int 1
LOOKUP_TABLE default
0 1 0 1 0 1 1 1 0 2 2 1 2 2 3 3 2 2 2 2 3 3 2 2 3 3 2 2 1 1 0 2 
SCALARS geom_link_id int 1
LOOKUP_TABLE default
-1 7 -1 30 -1 2 14 16 -1 27 29 6 23 30 2 5 34 28 23 30 2 5 34 28 5 2 29 24 10 37 -1 27 


CELL_DATA 64
SCALARS GMDS_ID int 1
LOOKUP_TABLE default
0 1 2 3 4 5 6 7 8 9 10 11 13 15 17 19 20 21 22 23 24 25 26 27 28 30 32 33 34 35 36 37 38 39 40 41 43 45 46 47 48 49 50 51 52 53 54 55 56 57 58 59 60 61 62 63 64 65 66 67 68 69 70 71 

SCALARS geom_link_dim int 1
LOOKUP_TABLE default
0 0 0 0 0 2 0 0 0 0 0 0 0 2 0 0 0 0 0 0 0 0 0 0 0 0 0 0 0 0 0 0 0 0 0 0 0 0 0 0 0 0 0 0 2 2 0 0 0 0 0 0 0 0 0 0 0 0 0 2 2 0 0 0 

SCALARS geom_link_id int 1
LOOKUP_TABLE default
0 0 0 0 0 19 0 0 -1 0 0 -1 0 27 0 0 0 0 0 0 -1 0 -1 0 0 0 -1 0 -1 0 0 0 0 0 0 0 0 0 0 0 0 0 0 0 24 24 -1 -1 -1 -1 -1 -1 -1 -1 -1 -1 -1 -1 -1 27 27 -1 -1 -1 

