# vtk DataFile Version 3.0
Generated by GMDS VTK Writer

ASCII
DATASET UNSTRUCTURED_GRID
POINTS 24 float
0 0 0
0 10 0
10 10 0
10 0 0
0 0 10
0 10 10
10 10 10
10 0 10
0 6 0
10 6 0
10 6 10
0 6 10
0 10 7
10 10 7
10 6 7
0 6 7
10 0 7
0 0 7
0 3 0
10 3 0
10 3 7
0 3 7
10 3 10
0 3 10

CELLS 46 138
2 2 13
2 1 2
2 13 6
2 3 0
2 1 12
2 5 6
2 12 5
2 7 4
2 0 18
2 20 14
2 16 20
2 18 8
2 1 8
2 2 9
2 6 10
2 5 11
2 8 9
2 3 19
2 11 10
2 19 9
2 9 14
2 14 10
2 8 15
2 15 11
2 12 13
2 13 14
2 15 14
2 12 15
2 3 16
2 16 7
2 0 17
2 17 4
2 17 16
2 17 21
2 21 15
2 18 19
2 19 20
2 20 21
2 18 21
2 7 22
2 22 10
2 4 23
2 23 11
2 22 20
2 23 22
2 23 21

CELL_TYPES 46
3 
3 
3 
3 
3 
3 
3 
3 
3 
3 
3 
3 
3 
3 
3 
3 
3 
3 
3 
3 
3 
3 
3 
3 
3 
3 
3 
3 
3 
3 
3 
3 
3 
3 
3 
3 
3 
3 
3 
3 
3 
3 
3 
3 
3 
3 
POINT_DATA 24
SCALARS GMDS_ID int 1
LOOKUP_TABLE default
0 1 2 3 4 5 6 7 8 9 10 11 12 13 14 15 16 17 18 19 20 21 22 23 
SCALARS geom_link_dim int 1
LOOKUP_TABLE default
0 1 0 1 0 1 1 1 2 2 2 2 1 2 3 3 2 0 2 2 3 3 2 2 
SCALARS geom_link_id int 1
LOOKUP_TABLE default
-1 7 -1 30 -1 2 14 16 23 30 34 28 6 29 2 5 27 -1 23 30 2 5 34 28 


CELL_DATA 46
SCALARS GMDS_ID int 1
LOOKUP_TABLE default
0 1 2 3 4 5 6 7 8 9 10 11 12 14 16 18 20 21 22 23 24 25 26 27 28 29 30 31 32 33 34 35 37 39 40 41 42 43 44 45 46 47 48 49 50 51 

SCALARS geom_link_dim int 1
LOOKUP_TABLE default
0 0 0 0 2 2 0 0 0 0 0 0 0 0 2 0 0 0 0 0 0 0 0 0 0 0 0 0 2 2 0 0 0 0 0 0 0 0 0 2 2 0 0 0 0 0 

SCALARS geom_link_id int 1
LOOKUP_TABLE default
0 0 0 0 24 19 0 0 -1 -1 -1 -1 0 0 34 0 0 -1 0 -1 0 0 0 0 0 0 0 0 27 27 0 0 0 -1 -1 -1 -1 -1 -1 34 34 -1 -1 -1 -1 -1 

