# vtk DataFile Version 3.0
Generated by GMDS VTK Writer

ASCII
DATASET UNSTRUCTURED_GRID
POINTS 27 float
0 0 0
0 10 0
10 10 0
10 0 0
0 0 10
0 10 10
10 10 10
10 0 10
0 0 9
10 0 9
10 10 9
0 10 9
0 5 0
10 5 0
10 5 9
0 5 9
10 5 10
0 5 10
3 0 0
3 0 9
3 5 9
3 5 0
3 10 9
3 10 0
3 0 10
3 5 10
3 10 10

CELLS 54 162
2 20 14
2 15 20
2 0 18
2 18 3
2 3 13
2 13 2
2 12 1
2 0 12
2 0 8
2 8 4
2 3 9
2 9 7
2 2 10
2 10 6
2 1 11
2 11 5
2 8 19
2 19 9
2 9 14
2 14 10
2 8 15
2 15 11
2 13 14
2 12 15
2 7 16
2 16 6
2 4 17
2 17 5
2 16 14
2 17 15
2 12 21
2 21 13
2 18 19
2 19 20
2 21 20
2 18 21
2 11 22
2 22 10
2 1 23
2 23 2
2 22 20
2 23 22
2 23 21
2 4 24
2 24 7
2 17 25
2 25 16
2 24 19
2 20 25
2 24 25
2 5 26
2 26 6
2 26 22
2 26 25

CELL_TYPES 54
3 
3 
3 
3 
3 
3 
3 
3 
3 
3 
3 
3 
3 
3 
3 
3 
3 
3 
3 
3 
3 
3 
3 
3 
3 
3 
3 
3 
3 
3 
3 
3 
3 
3 
3 
3 
3 
3 
3 
3 
3 
3 
3 
3 
3 
3 
3 
3 
3 
3 
3 
3 
3 
3 
POINT_DATA 27
SCALARS GMDS_ID int 1
LOOKUP_TABLE default
0 1 2 3 4 5 6 7 8 9 10 11 12 13 14 15 16 17 18 19 20 21 22 23 24 25 26 
SCALARS geom_link_dim int 1
LOOKUP_TABLE default
0 1 0 1 0 1 1 1 0 2 2 1 2 2 3 3 2 2 2 3 0 3 1 2 2 3 2 
SCALARS geom_link_id int 1
LOOKUP_TABLE default
-1 7 -1 30 -1 2 14 16 -1 27 29 3 23 30 2 5 34 28 26 14 -1 3 24 22 25 4 19 


CELL_DATA 54
SCALARS GMDS_ID int 1
LOOKUP_TABLE default
0 2 4 6 8 9 10 11 12 13 14 15 16 17 18 19 21 23 24 25 26 27 29 31 32 33 34 35 36 38 39 40 41 42 43 44 45 46 47 48 49 50 51 52 53 54 55 56 57 58 59 60 61 62 

SCALARS geom_link_dim int 1
LOOKUP_TABLE default
0 0 0 0 0 0 0 0 0 0 2 2 0 0 0 2 0 0 0 0 0 0 0 0 2 2 0 0 0 0 0 0 0 0 0 0 2 0 0 0 0 0 0 0 0 0 0 0 0 0 2 2 0 0 

SCALARS geom_link_id int 1
LOOKUP_TABLE default
-1 -1 -1 -1 0 0 0 0 0 0 27 27 0 0 0 63 -1 -1 0 0 0 0 0 0 34 34 0 0 0 0 -1 -1 -1 -1 -1 -1 21 -1 -1 -1 -1 -1 -1 -1 -1 -1 -1 -1 -1 -1 19 19 -1 -1 

