# vtk DataFile Version 3.0
Generated by GMDS VTK Writer

ASCII
DATASET UNSTRUCTURED_GRID
POINTS 18 float
0 0 0
0 10 0
10 10 0
10 0 0
0 0 10
0 10 10
10 10 10
10 0 10
0 0 9
10 0 9
10 10 9
0 10 9
0 5 0
10 5 0
10 5 9
0 5 9
10 5 10
0 5 10

CELLS 33 99
2 1 2
2 3 0
2 5 6
2 7 4
2 3 13
2 13 2
2 12 1
2 0 12
2 0 8
2 8 4
2 3 9
2 9 7
2 2 10
2 10 6
2 1 11
2 11 5
2 8 9
2 11 10
2 9 14
2 14 10
2 8 15
2 15 11
2 12 13
2 13 14
2 15 14
2 12 15
2 7 16
2 16 6
2 4 17
2 17 5
2 16 14
2 17 16
2 17 15

CELL_TYPES 33
3 
3 
3 
3 
3 
3 
3 
3 
3 
3 
3 
3 
3 
3 
3 
3 
3 
3 
3 
3 
3 
3 
3 
3 
3 
3 
3 
3 
3 
3 
3 
3 
3 
POINT_DATA 18
SCALARS GMDS_ID int 1
LOOKUP_TABLE default
0 1 2 3 4 5 6 7 8 9 10 11 12 13 14 15 16 17 
SCALARS geom_link_dim int 1
LOOKUP_TABLE default
0 1 0 1 0 1 1 1 0 2 2 1 2 2 3 3 2 2 
SCALARS geom_link_id int 1
LOOKUP_TABLE default
-1 7 -1 30 -1 2 14 16 -1 27 29 3 23 30 2 5 34 28 


CELL_DATA 33
SCALARS GMDS_ID int 1
LOOKUP_TABLE default
1 3 5 7 8 9 10 11 12 13 14 15 16 17 18 19 20 22 24 25 26 27 28 29 30 31 32 33 34 35 36 37 38 

SCALARS geom_link_dim int 1
LOOKUP_TABLE default
0 0 2 0 0 0 0 0 0 0 2 2 0 0 0 2 0 0 0 0 0 0 0 0 0 0 2 2 0 0 0 0 0 

SCALARS geom_link_id int 1
LOOKUP_TABLE default
0 0 19 0 -1 -1 -1 -1 0 0 27 27 0 0 0 63 0 0 -1 -1 -1 -1 -1 -1 -1 -1 34 34 -1 -1 -1 -1 -1 

