# vtk DataFile Version 3.0
Generated by GMDS VTK Writer

ASCII
DATASET UNSTRUCTURED_GRID
POINTS 32 float
0 0 0
0 10 0
10 10 0
10 0 0
0 0 10
0 10 10
10 10 10
10 0 10
0 0 7
10 0 7
10 10 7
0 10 7
0 5 0
10 5 0
10 5 7
0 5 7
10 5 10
0 5 10
0 3 0
10 3 0
10 3 7
0 3 7
10 3 10
0 3 10
0 5 4
10 5 4
10 10 4
0 10 4
0 3 4
10 3 4
0 0 4
10 0 4

CELLS 42 210
4 1 12 24 27 
4 12 13 2 1 
4 27 26 10 11 
4 21 20 14 15 
4 8 9 7 4 
4 8 9 20 21 
4 11 10 6 5 
4 18 19 13 12 
4 0 3 19 18 
4 1 2 26 27 
4 15 14 10 11 
4 26 25 14 10 
4 2 13 25 26 
4 16 14 10 6 
4 24 25 14 15 
4 17 16 6 5 
4 12 13 25 24 
4 17 15 11 5 
4 15 14 16 17 
4 7 9 20 22 
4 22 20 14 16 
4 4 7 22 23 
4 23 22 16 17 
4 4 8 21 23 
4 23 21 15 17 
4 21 20 22 23 
4 27 24 15 11 
4 24 25 26 27 
4 18 19 29 28 
4 28 29 20 21 
4 13 19 29 25 
4 25 29 20 14 
4 12 18 28 24 
4 24 28 21 15 
4 28 29 25 24 
4 0 3 31 30 
4 30 31 9 8 
4 3 19 29 31 
4 31 29 20 9 
4 0 18 28 30 
4 30 28 21 8 
4 30 31 29 28 

CELL_TYPES 42
9 
9 
9 
9 
9 
9 
9 
9 
9 
9 
9 
9 
9 
9 
9 
9 
9 
9 
9 
9 
9 
9 
9 
9 
9 
9 
9 
9 
9 
9 
9 
9 
9 
9 
9 
9 
9 
9 
9 
9 
9 
9 
POINT_DATA 32
SCALARS GMDS_ID int 1
LOOKUP_TABLE default
0 1 2 3 4 5 6 7 8 9 10 11 12 13 14 15 16 17 18 19 20 21 22 23 24 25 26 27 28 29 30 31 
SCALARS geom_link_dim int 1
LOOKUP_TABLE default
0 1 0 1 0 1 1 1 0 2 2 1 2 2 3 3 2 2 2 2 3 3 2 2 3 3 2 2 1 1 0 2 
SCALARS geom_link_id int 1
LOOKUP_TABLE default
-1 7 -1 30 -1 2 14 16 -1 27 29 6 23 30 2 5 34 28 23 30 2 5 34 28 5 2 29 24 10 37 -1 27 


CELL_DATA 42
SCALARS GMDS_ID int 1
LOOKUP_TABLE default
2 3 4 5 7 8 11 13 14 15 16 17 20 21 22 23 24 25 26 29 30 31 32 33 34 35 36 37 38 39 40 41 42 43 44 45 46 47 48 49 50 51 

SCALARS geom_link_dim int 1
LOOKUP_TABLE default
0 0 0 0 0 0 0 0 0 0 0 0 0 0 0 0 0 0 0 0 0 0 0 0 0 0 0 0 0 0 0 0 0 0 0 0 0 0 0 0 0 0 

SCALARS geom_link_id int 1
LOOKUP_TABLE default
-1 0 -1 0 0 0 0 0 0 -1 0 -1 -1 0 -1 0 -1 0 0 0 0 0 0 0 0 0 -1 -1 -1 -1 -1 -1 -1 -1 -1 -1 -1 -1 -1 -1 -1 -1 

