# vtk DataFile Version 3.0
Generated by GMDS VTK Writer

ASCII
DATASET UNSTRUCTURED_GRID
POINTS 36 float
0 0 0
0 10 0
10 10 0
10 0 0
0 0 10
0 10 10
10 10 10
10 0 10
0 0 9
10 0 9
10 10 9
0 10 9
0 5 0
10 5 0
10 5 9
0 5 9
10 5 10
0 5 10
3 0 0
3 0 9
3 5 9
3 5 0
3 10 9
3 10 0
3 0 10
3 5 10
3 10 10
0 0 7
0 5 7
3 5 7
3 0 7
10 5 7
10 0 7
0 10 7
3 10 7
10 10 7

CELLS 52 260
4 0 12 21 18 
4 3 13 31 32 
4 31 29 20 14 
4 13 21 29 31 
4 27 28 29 30 
4 19 20 14 9 
4 27 30 19 8 
4 0 18 30 27 
4 8 15 20 19 
4 30 29 20 19 
4 18 21 29 30 
4 28 29 20 15 
4 7 9 14 16 
4 16 14 10 6 
4 12 21 29 28 
4 27 28 15 8 
4 4 8 15 17 
4 17 15 11 5 
4 0 12 28 27 
4 18 21 13 3 
4 11 15 20 22 
4 22 20 14 10 
4 1 12 21 23 
4 23 21 13 2 
4 4 8 19 24 
4 24 19 9 7 
4 15 17 25 20 
4 20 25 16 14 
4 4 17 25 24 
4 24 25 16 7 
4 24 19 20 25 
4 5 11 22 26 
4 26 22 10 6 
4 5 17 25 26 
4 26 25 16 6 
4 25 20 22 26 
4 32 31 14 9 
4 3 18 30 32 
4 32 30 19 9 
4 30 29 31 32 
4 1 12 28 33 
4 33 28 15 11 
4 21 23 34 29 
4 29 34 22 20 
4 1 23 34 33 
4 33 34 22 11 
4 33 28 29 34 
4 2 13 31 35 
4 35 31 14 10 
4 2 23 34 35 
4 35 34 22 10 
4 34 29 31 35 

CELL_TYPES 52
9 
9 
9 
9 
9 
9 
9 
9 
9 
9 
9 
9 
9 
9 
9 
9 
9 
9 
9 
9 
9 
9 
9 
9 
9 
9 
9 
9 
9 
9 
9 
9 
9 
9 
9 
9 
9 
9 
9 
9 
9 
9 
9 
9 
9 
9 
9 
9 
9 
9 
9 
9 
POINT_DATA 36
SCALARS GMDS_ID int 1
LOOKUP_TABLE default
0 1 2 3 4 5 6 7 8 9 10 11 12 13 14 15 16 17 18 19 20 21 22 23 24 25 26 27 28 29 30 31 32 33 34 35 
SCALARS geom_link_dim int 1
LOOKUP_TABLE default
0 1 0 1 0 1 1 1 0 2 2 1 2 2 3 3 2 2 2 3 0 3 1 2 2 3 2 0 3 0 3 3 2 1 1 2 
SCALARS geom_link_id int 1
LOOKUP_TABLE default
-1 7 -1 30 -1 2 14 16 -1 27 29 3 23 30 2 5 34 28 26 14 0 3 24 22 25 4 19 -1 5 -1 14 2 27 6 25 29 


CELL_DATA 52
SCALARS GMDS_ID int 1
LOOKUP_TABLE default
0 3 4 6 7 9 10 11 12 15 16 19 20 21 22 23 24 25 26 27 29 30 33 34 36 37 38 39 40 41 42 43 44 45 46 47 48 49 50 51 52 53 54 55 56 57 58 59 60 61 62 63 

SCALARS geom_link_dim int 1
LOOKUP_TABLE default
0 0 0 0 0 0 0 0 0 0 0 0 0 0 0 0 0 0 0 0 0 0 0 0 0 0 0 0 0 0 0 0 0 0 0 0 0 0 0 0 0 0 0 0 0 0 0 0 0 0 0 0 

SCALARS geom_link_id int 1
LOOKUP_TABLE default
0 -1 -1 -1 -1 0 -1 -1 0 -1 -1 -1 0 0 -1 -1 0 0 -1 0 0 0 0 0 0 0 0 0 0 0 0 0 0 0 0 0 -1 -1 -1 -1 -1 -1 -1 -1 -1 -1 -1 -1 -1 -1 -1 -1 

