# vtk DataFile Version 3.0
Generated by GMDS VTK Writer

ASCII
DATASET UNSTRUCTURED_GRID
POINTS 32 float
0 0 0
0 10 0
10 10 0
10 0 0
0 0 10
0 10 10
10 10 10
10 0 10
0 6 0
10 6 0
10 6 10
0 6 10
0 10 7
10 10 7
10 6 7
0 6 7
10 0 7
0 0 7
0 3 0
10 3 0
10 3 7
0 3 7
10 3 10
0 3 10
0 10 3
10 10 3
10 6 3
0 6 3
0 3 3
10 3 3
0 0 3
10 0 3

CELLS 42 210
4 13 14 10 6 
4 12 13 6 5 
4 20 21 15 14 
4 1 2 9 8 
4 1 8 27 24 
4 16 17 21 20 
4 5 6 10 11 
4 27 26 14 15 
4 18 19 9 8 
4 0 3 19 18 
4 15 14 10 11 
4 12 15 11 5 
4 12 13 14 15 
4 8 9 26 27 
4 25 26 14 13 
4 17 16 7 4 
4 2 9 26 25 
4 24 25 13 12 
4 1 2 25 24 
4 7 16 20 22 
4 22 20 14 10 
4 4 7 22 23 
4 23 22 10 11 
4 4 17 21 23 
4 23 21 15 11 
4 21 20 22 23 
4 24 27 15 12 
4 24 25 26 27 
4 18 19 29 28 
4 28 29 20 21 
4 9 19 29 26 
4 26 29 20 14 
4 8 18 28 27 
4 27 28 21 15 
4 28 29 26 27 
4 0 3 31 30 
4 30 31 16 17 
4 3 19 29 31 
4 31 29 20 16 
4 0 18 28 30 
4 30 28 21 17 
4 30 31 29 28 

CELL_TYPES 42
9 
9 
9 
9 
9 
9 
9 
9 
9 
9 
9 
9 
9 
9 
9 
9 
9 
9 
9 
9 
9 
9 
9 
9 
9 
9 
9 
9 
9 
9 
9 
9 
9 
9 
9 
9 
9 
9 
9 
9 
9 
9 
POINT_DATA 32
SCALARS GMDS_ID int 1
LOOKUP_TABLE default
0 1 2 3 4 5 6 7 8 9 10 11 12 13 14 15 16 17 18 19 20 21 22 23 24 25 26 27 28 29 30 31 
SCALARS geom_link_dim int 1
LOOKUP_TABLE default
0 1 0 1 0 1 1 1 2 2 2 2 1 2 3 3 2 0 2 2 3 3 2 2 2 1 3 3 3 3 0 2 
SCALARS geom_link_id int 1
LOOKUP_TABLE default
-1 7 -1 30 -1 2 14 16 23 30 34 28 6 29 2 5 27 -1 23 30 2 5 34 28 24 23 2 5 5 2 -1 27 


CELL_DATA 42
SCALARS GMDS_ID int 1
LOOKUP_TABLE default
0 3 4 6 7 8 10 11 13 14 16 18 19 20 21 23 24 25 26 29 30 31 32 33 34 35 36 37 38 39 40 41 42 43 44 45 46 47 48 49 50 51 

SCALARS geom_link_dim int 1
LOOKUP_TABLE default
0 0 0 0 0 0 0 0 0 0 0 0 0 0 0 0 0 0 0 0 0 0 0 0 0 0 0 0 0 0 0 0 0 0 0 0 0 0 0 0 0 0 

SCALARS geom_link_id int 1
LOOKUP_TABLE default
0 0 0 0 -1 0 0 -1 0 0 0 0 0 -1 -1 0 -1 -1 -1 0 0 0 0 0 0 0 -1 -1 -1 -1 -1 -1 -1 -1 -1 -1 -1 -1 -1 -1 -1 -1 

