# vtk DataFile Version 3.0
Generated by GMDS VTK Writer

ASCII
DATASET UNSTRUCTURED_GRID
POINTS 24 float
0 0 0
0 10 0
10 10 0
10 0 0
0 0 10
0 10 10
10 10 10
10 0 10
0 0 7
10 0 7
10 10 7
0 10 7
0 5 0
10 5 0
10 5 7
0 5 7
10 5 10
0 5 10
0 3 0
10 3 0
10 3 7
0 3 7
10 3 10
0 3 10

CELLS 29 145
4 0 8 21 18 
4 13 14 10 2 
4 12 13 2 1 
4 21 20 14 15 
4 0 3 9 8 
4 8 9 7 4 
4 8 9 20 21 
4 19 20 14 13 
4 1 2 10 11 
4 11 10 6 5 
4 3 9 20 19 
4 18 19 13 12 
4 0 3 19 18 
4 15 14 10 11 
4 12 15 11 1 
4 12 13 14 15 
4 16 14 10 6 
4 17 16 6 5 
4 17 15 11 5 
4 15 14 16 17 
4 18 21 15 12 
4 18 19 20 21 
4 7 9 20 22 
4 22 20 14 16 
4 4 7 22 23 
4 23 22 16 17 
4 4 8 21 23 
4 23 21 15 17 
4 21 20 22 23 

CELL_TYPES 29
9 
9 
9 
9 
9 
9 
9 
9 
9 
9 
9 
9 
9 
9 
9 
9 
9 
9 
9 
9 
9 
9 
9 
9 
9 
9 
9 
9 
9 
POINT_DATA 24
SCALARS GMDS_ID int 1
LOOKUP_TABLE default
0 1 2 3 4 5 6 7 8 9 10 11 12 13 14 15 16 17 18 19 20 21 22 23 
SCALARS geom_link_dim int 1
LOOKUP_TABLE default
0 1 0 1 0 1 1 1 0 2 2 1 2 2 3 3 2 2 2 2 3 3 2 2 
SCALARS geom_link_id int 1
LOOKUP_TABLE default
-1 7 -1 30 -1 2 14 16 -1 27 29 6 23 30 2 5 34 28 23 30 2 5 34 28 


CELL_DATA 29
SCALARS GMDS_ID int 1
LOOKUP_TABLE default
0 1 3 5 6 7 8 9 10 11 12 13 14 16 18 19 21 23 25 26 27 28 29 30 31 32 33 34 35 

SCALARS geom_link_dim int 1
LOOKUP_TABLE default
0 0 0 0 0 0 0 0 0 0 0 0 0 0 0 0 0 0 0 0 0 0 0 0 0 0 0 0 0 

SCALARS geom_link_id int 1
LOOKUP_TABLE default
-1 0 0 -1 0 0 -1 -1 0 0 -1 -1 -1 0 0 0 0 0 0 0 -1 -1 -1 -1 -1 -1 -1 -1 -1 

