# vtk DataFile Version 3.0
Generated by GMDS VTK Writer

ASCII
DATASET UNSTRUCTURED_GRID
POINTS 18 float
0 0 0
0 10 0
10 10 0
10 0 0
0 0 10
0 10 10
10 10 10
10 0 10
0 0 7
10 0 7
10 10 7
0 10 7
0 5 0
10 5 0
10 5 7
0 5 7
10 5 10
0 5 10

CELLS 20 100
4 13 14 10 2 
4 3 9 14 13 
4 12 13 2 1 
4 0 3 13 12 
4 0 3 9 8 
4 8 9 7 4 
4 1 2 10 11 
4 11 10 6 5 
4 8 9 14 15 
4 15 14 10 11 
4 0 8 15 12 
4 12 15 11 1 
4 12 13 14 15 
4 7 9 14 16 
4 16 14 10 6 
4 4 7 16 17 
4 17 16 6 5 
4 4 8 15 17 
4 17 15 11 5 
4 15 14 16 17 

CELL_TYPES 20
9 
9 
9 
9 
9 
9 
9 
9 
9 
9 
9 
9 
9 
9 
9 
9 
9 
9 
9 
9 
POINT_DATA 18
SCALARS GMDS_ID int 1
LOOKUP_TABLE default
0 1 2 3 4 5 6 7 8 9 10 11 12 13 14 15 16 17 
SCALARS geom_link_dim int 1
LOOKUP_TABLE default
0 1 0 1 0 1 1 1 0 2 2 1 2 2 3 3 2 2 
SCALARS geom_link_id int 1
LOOKUP_TABLE default
-1 7 -1 30 -1 2 14 16 -1 27 29 6 23 30 2 5 34 28 


CELL_DATA 20
SCALARS GMDS_ID int 1
LOOKUP_TABLE default
1 2 3 4 6 7 10 11 15 16 17 18 19 20 21 22 23 24 25 26 

SCALARS geom_link_dim int 1
LOOKUP_TABLE default
0 0 0 0 0 0 0 0 0 0 0 0 0 0 0 0 0 0 0 0 

SCALARS geom_link_id int 1
LOOKUP_TABLE default
-1 -1 -1 -1 0 0 0 0 -1 -1 -1 -1 -1 -1 -1 -1 -1 -1 -1 -1 

